<?xml version="1.0" encoding="UTF-8"?>

<!-- generated on 2023-05-12 19:39:41 by Eclipse SUMO GUI Version 1.17.0
<configuration xmlns:xsi="http://www.w3.org/2001/XMLSchema-instance" xsi:noNamespaceSchemaLocation="http://sumo.dlr.de/xsd/sumoConfiguration.xsd">

    <input>
        <net-file value="maps/intersection_edited.net.xml"/>
        <route-files value="maps/intersection_edited.rou.xml"/>
    </input>

    <output>
        <tripinfo-output value="tripinfo.xml"/>
    </output>

    <time>
        <begin value="0"/>
        <end value="200"/>
    </time>

    <report>
        <verbose value="true"/>
        <no-step-log value="true"/>
    </report>

    <traci_server>
        <remote-port value="51457"/>
    </traci_server>

</configuration>
-->

<tripinfos xmlns:xsi="http://www.w3.org/2001/XMLSchema-instance" xsi:noNamespaceSchemaLocation="http://sumo.dlr.de/xsd/tripinfo_file.xsd">
    <tripinfo id="1" depart="1.00" departLane="-E3_0" departPos="5.10" departSpeed="0.00" departDelay="0.00" arrival="26.00" arrivalLane="E2_0" arrivalPos="75.00" arrivalSpeed="14.21" duration="25.00" routeLength="153.93" waitingTime="5.00" waitingCount="1" stopTime="0.00" timeLoss="13.41" rerouteNo="0" devices="tripinfo_1" vType="DEFAULT_VEHTYPE" speedFactor="1.06" vaporized=""/>
    <tripinfo id="4" depart="4.00" departLane="-E3_0" departPos="5.10" departSpeed="0.00" departDelay="0.00" arrival="28.00" arrivalLane="E2_0" arrivalPos="75.00" arrivalSpeed="13.64" duration="24.00" routeLength="153.93" waitingTime="3.00" waitingCount="1" stopTime="0.00" timeLoss="12.52" rerouteNo="0" devices="tripinfo_4" vType="DEFAULT_VEHTYPE" speedFactor="1.01" vaporized=""/>
    <tripinfo id="11" depart="11.00" departLane="-E3_0" departPos="5.10" departSpeed="0.00" departDelay="0.00" arrival="31.00" arrivalLane="E2_0" arrivalPos="75.00" arrivalSpeed="13.71" duration="20.00" routeLength="153.93" waitingTime="0.00" waitingCount="0" stopTime="0.00" timeLoss="7.98" rerouteNo="0" devices="tripinfo_11" vType="DEFAULT_VEHTYPE" speedFactor="1.05" vaporized=""/>
    <tripinfo id="17" depart="17.00" departLane="-E3_0" departPos="5.10" departSpeed="0.00" departDelay="0.00" arrival="35.00" arrivalLane="E4_0" arrivalPos="75.00" arrivalSpeed="10.73" duration="18.00" routeLength="159.31" waitingTime="0.00" waitingCount="0" stopTime="0.00" timeLoss="3.83" rerouteNo="0" devices="tripinfo_17" vType="DEFAULT_VEHTYPE" speedFactor="0.86" vaporized=""/>
    <tripinfo id="5" depart="5.00" departLane="-E2_0" departPos="5.10" departSpeed="0.00" departDelay="0.00" arrival="42.00" arrivalLane="E4_0" arrivalPos="75.00" arrivalSpeed="14.03" duration="37.00" routeLength="153.94" waitingTime="16.00" waitingCount="1" stopTime="0.00" timeLoss="25.63" rerouteNo="0" devices="tripinfo_5" vType="DEFAULT_VEHTYPE" speedFactor="1.08" vaporized=""/>
    <tripinfo id="8" depart="8.00" departLane="-E2_0" departPos="5.10" departSpeed="0.00" departDelay="0.00" arrival="44.00" arrivalLane="E4_0" arrivalPos="75.00" arrivalSpeed="14.23" duration="36.00" routeLength="153.94" waitingTime="15.00" waitingCount="1" stopTime="0.00" timeLoss="24.17" rerouteNo="0" devices="tripinfo_8" vType="DEFAULT_VEHTYPE" speedFactor="1.03" vaporized=""/>
    <tripinfo id="28" depart="28.00" departLane="-E2_0" departPos="5.10" departSpeed="0.00" departDelay="0.00" arrival="47.00" arrivalLane="E4_0" arrivalPos="75.00" arrivalSpeed="13.35" duration="19.00" routeLength="153.94" waitingTime="0.00" waitingCount="0" stopTime="0.00" timeLoss="7.28" rerouteNo="0" devices="tripinfo_28" vType="DEFAULT_VEHTYPE" speedFactor="1.05" vaporized=""/>
    <tripinfo id="35" depart="35.00" departLane="-E2_0" departPos="5.10" departSpeed="0.00" departDelay="0.00" arrival="49.00" arrivalLane="E5_0" arrivalPos="75.00" arrivalSpeed="14.44" duration="14.00" routeLength="159.30" waitingTime="0.00" waitingCount="0" stopTime="0.00" timeLoss="3.62" rerouteNo="0" devices="tripinfo_35" vType="DEFAULT_VEHTYPE" speedFactor="1.12" vaporized=""/>
    <tripinfo id="3" depart="3.00" departLane="-E5_0" departPos="5.10" departSpeed="0.00" departDelay="0.00" arrival="58.00" arrivalLane="E2_0" arrivalPos="75.00" arrivalSpeed="12.62" duration="55.00" routeLength="159.31" waitingTime="34.00" waitingCount="1" stopTime="0.00" timeLoss="42.29" rerouteNo="0" devices="tripinfo_3" vType="DEFAULT_VEHTYPE" speedFactor="0.94" vaporized=""/>
    <tripinfo id="16" depart="16.00" departLane="-E4_0" departPos="5.10" departSpeed="0.00" departDelay="0.00" arrival="58.00" arrivalLane="E5_0" arrivalPos="75.00" arrivalSpeed="12.17" duration="42.00" routeLength="153.93" waitingTime="20.00" waitingCount="1" stopTime="0.00" timeLoss="29.40" rerouteNo="0" devices="tripinfo_16" vType="DEFAULT_VEHTYPE" speedFactor="0.94" vaporized=""/>
    <tripinfo id="9" depart="9.00" departLane="-E5_0" departPos="5.10" departSpeed="0.00" departDelay="0.00" arrival="61.00" arrivalLane="E2_0" arrivalPos="75.00" arrivalSpeed="11.54" duration="52.00" routeLength="159.31" waitingTime="29.00" waitingCount="1" stopTime="0.00" timeLoss="37.74" rerouteNo="0" devices="tripinfo_9" vType="DEFAULT_VEHTYPE" speedFactor="0.83" vaporized=""/>
    <tripinfo id="12" depart="12.00" departLane="-E5_0" departPos="5.10" departSpeed="0.00" departDelay="0.00" arrival="64.00" arrivalLane="E3_0" arrivalPos="75.00" arrivalSpeed="12.00" duration="52.00" routeLength="153.95" waitingTime="27.00" waitingCount="1" stopTime="0.00" timeLoss="38.42" rerouteNo="0" devices="tripinfo_12" vType="DEFAULT_VEHTYPE" speedFactor="0.89" vaporized=""/>
    <tripinfo id="36" depart="36.00" departLane="-E5_0" departPos="5.10" departSpeed="0.00" departDelay="0.00" arrival="66.00" arrivalLane="E3_0" arrivalPos="75.00" arrivalSpeed="13.01" duration="30.00" routeLength="153.95" waitingTime="5.00" waitingCount="1" stopTime="0.00" timeLoss="17.89" rerouteNo="0" devices="tripinfo_36" vType="DEFAULT_VEHTYPE" speedFactor="0.99" vaporized=""/>
    <tripinfo id="38" depart="39.00" departLane="-E5_0" departPos="5.10" departSpeed="0.00" departDelay="1.00" arrival="70.00" arrivalLane="E3_0" arrivalPos="75.00" arrivalSpeed="11.43" duration="31.00" routeLength="153.95" waitingTime="4.00" waitingCount="1" stopTime="0.00" timeLoss="16.50" rerouteNo="0" devices="tripinfo_38" vType="DEFAULT_VEHTYPE" speedFactor="0.88" vaporized=""/>
    <tripinfo id="46" depart="46.00" departLane="-E5_0" departPos="5.10" departSpeed="0.00" departDelay="0.00" arrival="71.00" arrivalLane="E3_0" arrivalPos="75.00" arrivalSpeed="13.47" duration="25.00" routeLength="153.95" waitingTime="1.00" waitingCount="1" stopTime="0.00" timeLoss="13.00" rerouteNo="0" devices="tripinfo_46" vType="DEFAULT_VEHTYPE" speedFactor="0.97" vaporized=""/>
    <tripinfo id="25" depart="25.00" departLane="-E3_0" departPos="5.10" departSpeed="0.00" departDelay="0.00" arrival="74.00" arrivalLane="E2_0" arrivalPos="75.00" arrivalSpeed="14.20" duration="49.00" routeLength="153.93" waitingTime="28.00" waitingCount="1" stopTime="0.00" timeLoss="36.79" rerouteNo="0" devices="tripinfo_25" vType="DEFAULT_VEHTYPE" speedFactor="1.03" vaporized=""/>
    <tripinfo id="39" depart="39.00" departLane="-E3_0" departPos="5.10" departSpeed="0.00" departDelay="0.00" arrival="77.00" arrivalLane="E2_0" arrivalPos="75.00" arrivalSpeed="12.30" duration="38.00" routeLength="153.93" waitingTime="17.00" waitingCount="1" stopTime="0.00" timeLoss="24.85" rerouteNo="0" devices="tripinfo_39" vType="DEFAULT_VEHTYPE" speedFactor="0.94" vaporized=""/>
    <tripinfo id="42" depart="42.00" departLane="-E3_0" departPos="5.10" departSpeed="0.00" departDelay="0.00" arrival="79.00" arrivalLane="E2_0" arrivalPos="75.00" arrivalSpeed="14.13" duration="37.00" routeLength="153.93" waitingTime="14.00" waitingCount="1" stopTime="0.00" timeLoss="24.96" rerouteNo="0" devices="tripinfo_42" vType="DEFAULT_VEHTYPE" speedFactor="1.02" vaporized=""/>
    <tripinfo id="52" depart="52.00" departLane="-E3_0" departPos="5.10" departSpeed="0.00" departDelay="0.00" arrival="82.00" arrivalLane="E4_0" arrivalPos="75.00" arrivalSpeed="11.01" duration="30.00" routeLength="159.31" waitingTime="6.00" waitingCount="1" stopTime="0.00" timeLoss="15.58" rerouteNo="0" devices="tripinfo_52" vType="DEFAULT_VEHTYPE" speedFactor="0.83" vaporized=""/>
    <tripinfo id="58" depart="58.00" departLane="-E3_0" departPos="5.10" departSpeed="0.00" departDelay="0.00" arrival="84.00" arrivalLane="E4_0" arrivalPos="75.00" arrivalSpeed="11.98" duration="26.00" routeLength="159.31" waitingTime="1.00" waitingCount="1" stopTime="0.00" timeLoss="12.81" rerouteNo="0" devices="tripinfo_58" vType="DEFAULT_VEHTYPE" speedFactor="0.92" vaporized=""/>
    <tripinfo id="65" depart="65.00" departLane="-E3_0" departPos="5.10" departSpeed="0.00" departDelay="0.00" arrival="85.00" arrivalLane="E2_0" arrivalPos="75.00" arrivalSpeed="14.72" duration="20.00" routeLength="153.93" waitingTime="0.00" waitingCount="0" stopTime="0.00" timeLoss="9.54" rerouteNo="0" devices="tripinfo_65" vType="DEFAULT_VEHTYPE" speedFactor="1.13" vaporized=""/>
    <tripinfo id="70" depart="70.00" departLane="-E3_0" departPos="5.10" departSpeed="0.00" departDelay="0.00" arrival="86.00" arrivalLane="E4_0" arrivalPos="75.00" arrivalSpeed="15.70" duration="16.00" routeLength="159.31" waitingTime="0.00" waitingCount="0" stopTime="0.00" timeLoss="5.61" rerouteNo="0" devices="tripinfo_70" vType="DEFAULT_VEHTYPE" speedFactor="1.15" vaporized=""/>
    <tripinfo id="24" depart="24.00" departLane="-E4_0" departPos="5.10" departSpeed="0.00" departDelay="0.00" arrival="90.00" arrivalLane="E3_0" arrivalPos="75.00" arrivalSpeed="14.81" duration="66.00" routeLength="159.31" waitingTime="41.00" waitingCount="2" stopTime="0.00" timeLoss="54.86" rerouteNo="0" devices="tripinfo_24" vType="DEFAULT_VEHTYPE" speedFactor="1.09" vaporized=""/>
    <tripinfo id="45" depart="45.00" departLane="-E2_0" departPos="5.10" departSpeed="0.00" departDelay="0.00" arrival="91.00" arrivalLane="E4_0" arrivalPos="75.00" arrivalSpeed="13.18" duration="46.00" routeLength="153.94" waitingTime="24.00" waitingCount="1" stopTime="0.00" timeLoss="33.56" rerouteNo="0" devices="tripinfo_45" vType="DEFAULT_VEHTYPE" speedFactor="1.01" vaporized=""/>
    <tripinfo id="37" depart="37.00" departLane="-E4_0" departPos="5.10" departSpeed="0.00" departDelay="0.00" arrival="92.00" arrivalLane="E3_0" arrivalPos="75.00" arrivalSpeed="11.70" duration="55.00" routeLength="159.31" waitingTime="28.00" waitingCount="2" stopTime="0.00" timeLoss="42.34" rerouteNo="0" devices="tripinfo_37" vType="DEFAULT_VEHTYPE" speedFactor="0.93" vaporized=""/>
    <tripinfo id="40" depart="40.00" departLane="-E4_0" departPos="5.10" departSpeed="0.00" departDelay="0.00" arrival="94.00" arrivalLane="E3_0" arrivalPos="75.00" arrivalSpeed="12.96" duration="54.00" routeLength="159.31" waitingTime="27.00" waitingCount="2" stopTime="0.00" timeLoss="41.46" rerouteNo="0" devices="tripinfo_40" vType="DEFAULT_VEHTYPE" speedFactor="0.94" vaporized=""/>
    <tripinfo id="50" depart="50.00" departLane="-E2_0" departPos="5.10" departSpeed="0.00" departDelay="0.00" arrival="94.00" arrivalLane="E4_0" arrivalPos="75.00" arrivalSpeed="11.20" duration="44.00" routeLength="153.94" waitingTime="20.00" waitingCount="1" stopTime="0.00" timeLoss="30.57" rerouteNo="0" devices="tripinfo_50" vType="DEFAULT_VEHTYPE" speedFactor="0.89" vaporized=""/>
    <tripinfo id="63" depart="63.00" departLane="-E2_0" departPos="5.10" departSpeed="0.00" departDelay="0.00" arrival="96.00" arrivalLane="E5_0" arrivalPos="75.00" arrivalSpeed="12.40" duration="33.00" routeLength="159.30" waitingTime="10.00" waitingCount="1" stopTime="0.00" timeLoss="20.28" rerouteNo="0" devices="tripinfo_63" vType="DEFAULT_VEHTYPE" speedFactor="0.95" vaporized=""/>
    <tripinfo id="68" depart="68.00" departLane="-E2_0" departPos="5.10" departSpeed="0.00" departDelay="0.00" arrival="98.00" arrivalLane="E5_0" arrivalPos="75.00" arrivalSpeed="11.80" duration="30.00" routeLength="159.30" waitingTime="6.00" waitingCount="1" stopTime="0.00" timeLoss="16.89" rerouteNo="0" devices="tripinfo_68" vType="DEFAULT_VEHTYPE" speedFactor="0.93" vaporized=""/>
    <tripinfo id="80" depart="80.00" departLane="-E2_0" departPos="5.10" departSpeed="0.00" departDelay="0.00" arrival="101.00" arrivalLane="E4_0" arrivalPos="75.00" arrivalSpeed="13.53" duration="21.00" routeLength="153.94" waitingTime="0.00" waitingCount="0" stopTime="0.00" timeLoss="8.79" rerouteNo="0" devices="tripinfo_80" vType="DEFAULT_VEHTYPE" speedFactor="1.02" vaporized=""/>
    <tripinfo id="81" depart="83.00" departLane="-E2_0" departPos="5.10" departSpeed="0.00" departDelay="2.00" arrival="102.00" arrivalLane="E5_0" arrivalPos="75.00" arrivalSpeed="12.56" duration="19.00" routeLength="159.30" waitingTime="0.00" waitingCount="0" stopTime="0.00" timeLoss="7.10" rerouteNo="0" devices="tripinfo_81" vType="DEFAULT_VEHTYPE" speedFactor="0.97" vaporized=""/>
    <tripinfo id="41" depart="43.00" departLane="-E4_0" departPos="5.10" departSpeed="0.00" departDelay="2.00" arrival="105.00" arrivalLane="E5_0" arrivalPos="75.00" arrivalSpeed="15.65" duration="62.00" routeLength="153.93" waitingTime="29.00" waitingCount="2" stopTime="0.00" timeLoss="51.65" rerouteNo="0" devices="tripinfo_41" vType="DEFAULT_VEHTYPE" speedFactor="1.16" vaporized=""/>
    <tripinfo id="55" depart="55.00" departLane="-E5_0" departPos="5.10" departSpeed="0.00" departDelay="0.00" arrival="107.00" arrivalLane="E3_0" arrivalPos="75.00" arrivalSpeed="11.56" duration="52.00" routeLength="153.95" waitingTime="30.00" waitingCount="1" stopTime="0.00" timeLoss="37.92" rerouteNo="0" devices="tripinfo_55" vType="DEFAULT_VEHTYPE" speedFactor="0.87" vaporized=""/>
    <tripinfo id="69" depart="69.00" departLane="-E5_0" departPos="5.10" departSpeed="0.00" departDelay="0.00" arrival="108.00" arrivalLane="E2_0" arrivalPos="75.00" arrivalSpeed="15.33" duration="39.00" routeLength="159.31" waitingTime="19.00" waitingCount="1" stopTime="0.00" timeLoss="29.04" rerouteNo="0" devices="tripinfo_69" vType="DEFAULT_VEHTYPE" speedFactor="1.18" vaporized=""/>
    <tripinfo id="82" depart="82.00" departLane="-E5_0" departPos="5.10" departSpeed="0.00" departDelay="0.00" arrival="110.00" arrivalLane="E2_0" arrivalPos="75.00" arrivalSpeed="15.76" duration="28.00" routeLength="159.31" waitingTime="7.00" waitingCount="1" stopTime="0.00" timeLoss="17.87" rerouteNo="0" devices="tripinfo_82" vType="DEFAULT_VEHTYPE" speedFactor="1.18" vaporized=""/>
    <tripinfo id="87" depart="87.00" departLane="-E5_0" departPos="5.10" departSpeed="0.00" departDelay="0.00" arrival="113.00" arrivalLane="E2_0" arrivalPos="75.00" arrivalSpeed="12.14" duration="26.00" routeLength="159.31" waitingTime="2.00" waitingCount="1" stopTime="0.00" timeLoss="12.78" rerouteNo="0" devices="tripinfo_87" vType="DEFAULT_VEHTYPE" speedFactor="0.90" vaporized=""/>
    <tripinfo id="91" depart="91.00" departLane="-E5_0" departPos="5.10" departSpeed="0.00" departDelay="0.00" arrival="115.00" arrivalLane="E2_0" arrivalPos="75.00" arrivalSpeed="13.57" duration="24.00" routeLength="159.31" waitingTime="0.00" waitingCount="0" stopTime="0.00" timeLoss="12.05" rerouteNo="0" devices="tripinfo_91" vType="DEFAULT_VEHTYPE" speedFactor="1.03" vaporized=""/>
    <tripinfo id="93" depart="94.00" departLane="-E5_0" departPos="5.10" departSpeed="0.00" departDelay="1.00" arrival="116.00" arrivalLane="E2_0" arrivalPos="75.00" arrivalSpeed="13.25" duration="22.00" routeLength="159.31" waitingTime="0.00" waitingCount="0" stopTime="0.00" timeLoss="9.95" rerouteNo="0" devices="tripinfo_93" vType="DEFAULT_VEHTYPE" speedFactor="0.96" vaporized=""/>
    <tripinfo id="101" depart="101.00" departLane="-E5_0" departPos="5.10" departSpeed="0.00" departDelay="0.00" arrival="118.00" arrivalLane="E2_0" arrivalPos="75.00" arrivalSpeed="13.27" duration="17.00" routeLength="159.31" waitingTime="0.00" waitingCount="0" stopTime="0.00" timeLoss="5.61" rerouteNo="0" devices="tripinfo_101" vType="DEFAULT_VEHTYPE" speedFactor="1.04" vaporized=""/>
    <tripinfo id="83" depart="86.00" departLane="-E2_0" departPos="5.10" departSpeed="0.00" departDelay="3.00" arrival="122.00" arrivalLane="E4_0" arrivalPos="75.00" arrivalSpeed="14.30" duration="36.00" routeLength="153.94" waitingTime="15.00" waitingCount="1" stopTime="0.00" timeLoss="24.72" rerouteNo="0" devices="tripinfo_83" vType="DEFAULT_VEHTYPE" speedFactor="1.10" vaporized=""/>
    <tripinfo id="96" depart="96.00" departLane="-E2_0" departPos="5.10" departSpeed="0.00" departDelay="0.00" arrival="124.00" arrivalLane="E5_0" arrivalPos="75.00" arrivalSpeed="14.20" duration="28.00" routeLength="159.30" waitingTime="6.00" waitingCount="1" stopTime="0.00" timeLoss="17.22" rerouteNo="0" devices="tripinfo_96" vType="DEFAULT_VEHTYPE" speedFactor="1.09" vaporized=""/>
    <tripinfo id="112" depart="112.00" departLane="-E2_0" departPos="5.10" departSpeed="0.00" departDelay="0.00" arrival="130.00" arrivalLane="E4_0" arrivalPos="75.00" arrivalSpeed="13.08" duration="18.00" routeLength="153.94" waitingTime="0.00" waitingCount="0" stopTime="0.00" timeLoss="5.38" rerouteNo="0" devices="tripinfo_112" vType="DEFAULT_VEHTYPE" speedFactor="1.00" vaporized=""/>
    <tripinfo id="114" depart="115.00" departLane="-E2_0" departPos="5.10" departSpeed="0.00" departDelay="1.00" arrival="132.00" arrivalLane="E5_0" arrivalPos="75.00" arrivalSpeed="11.03" duration="17.00" routeLength="159.30" waitingTime="0.00" waitingCount="0" stopTime="0.00" timeLoss="3.15" rerouteNo="0" devices="tripinfo_114" vType="DEFAULT_VEHTYPE" speedFactor="0.88" vaporized=""/>
    <tripinfo id="72" depart="73.00" departLane="-E3_0" departPos="5.10" departSpeed="0.00" departDelay="1.00" arrival="138.00" arrivalLane="E2_0" arrivalPos="75.00" arrivalSpeed="12.74" duration="65.00" routeLength="153.93" waitingTime="44.00" waitingCount="1" stopTime="0.00" timeLoss="53.28" rerouteNo="0" devices="tripinfo_72" vType="DEFAULT_VEHTYPE" speedFactor="1.01" vaporized=""/>
    <tripinfo id="76" depart="76.00" departLane="-E3_0" departPos="5.10" departSpeed="0.00" departDelay="0.00" arrival="140.00" arrivalLane="E4_0" arrivalPos="75.00" arrivalSpeed="16.12" duration="64.00" routeLength="159.31" waitingTime="42.00" waitingCount="1" stopTime="0.00" timeLoss="53.30" rerouteNo="0" devices="tripinfo_76" vType="DEFAULT_VEHTYPE" speedFactor="1.17" vaporized=""/>
    <tripinfo id="78" depart="79.00" departLane="-E3_0" departPos="5.10" departSpeed="0.00" departDelay="1.00" arrival="142.00" arrivalLane="E4_0" arrivalPos="75.00" arrivalSpeed="13.72" duration="63.00" routeLength="159.31" waitingTime="40.00" waitingCount="1" stopTime="0.00" timeLoss="50.92" rerouteNo="0" devices="tripinfo_78" vType="DEFAULT_VEHTYPE" speedFactor="0.99" vaporized=""/>
    <tripinfo id="102" depart="102.00" departLane="-E3_0" departPos="5.10" departSpeed="0.00" departDelay="0.00" arrival="146.00" arrivalLane="E2_0" arrivalPos="75.00" arrivalSpeed="13.32" duration="44.00" routeLength="153.93" waitingTime="20.00" waitingCount="1" stopTime="0.00" timeLoss="32.01" rerouteNo="0" devices="tripinfo_102" vType="DEFAULT_VEHTYPE" speedFactor="1.04" vaporized=""/>
    <tripinfo id="103" depart="105.00" departLane="-E3_0" departPos="5.10" departSpeed="0.00" departDelay="2.00" arrival="148.00" arrivalLane="E2_0" arrivalPos="75.00" arrivalSpeed="13.88" duration="43.00" routeLength="153.93" waitingTime="19.00" waitingCount="1" stopTime="0.00" timeLoss="31.51" rerouteNo="0" devices="tripinfo_103" vType="DEFAULT_VEHTYPE" speedFactor="1.09" vaporized=""/>
    <tripinfo id="120" depart="120.00" departLane="-E3_0" departPos="5.10" departSpeed="0.00" departDelay="0.00" arrival="151.00" arrivalLane="E4_0" arrivalPos="75.00" arrivalSpeed="10.93" duration="31.00" routeLength="159.31" waitingTime="6.00" waitingCount="1" stopTime="0.00" timeLoss="16.80" rerouteNo="0" devices="tripinfo_120" vType="DEFAULT_VEHTYPE" speedFactor="0.85" vaporized=""/>
    <tripinfo id="113" depart="113.00" departLane="-E4_0" departPos="5.10" departSpeed="0.00" departDelay="0.00" arrival="154.00" arrivalLane="E5_0" arrivalPos="75.00" arrivalSpeed="12.30" duration="41.00" routeLength="153.93" waitingTime="20.00" waitingCount="1" stopTime="0.00" timeLoss="27.83" rerouteNo="0" devices="tripinfo_113" vType="DEFAULT_VEHTYPE" speedFactor="0.90" vaporized=""/>
    <tripinfo id="118" depart="118.00" departLane="-E5_0" departPos="5.10" departSpeed="0.00" departDelay="0.00" arrival="155.00" arrivalLane="E2_0" arrivalPos="75.00" arrivalSpeed="10.80" duration="37.00" routeLength="159.31" waitingTime="15.00" waitingCount="1" stopTime="0.00" timeLoss="23.02" rerouteNo="0" devices="tripinfo_118" vType="DEFAULT_VEHTYPE" speedFactor="0.85" vaporized=""/>
    <tripinfo id="121" depart="121.00" departLane="-E4_0" departPos="5.10" departSpeed="0.00" departDelay="0.00" arrival="156.00" arrivalLane="E5_0" arrivalPos="75.00" arrivalSpeed="14.95" duration="35.00" routeLength="153.93" waitingTime="14.00" waitingCount="1" stopTime="0.00" timeLoss="24.07" rerouteNo="0" devices="tripinfo_121" vType="DEFAULT_VEHTYPE" speedFactor="1.17" vaporized=""/>
    <tripinfo id="135" depart="135.00" departLane="-E5_0" departPos="5.10" departSpeed="0.00" departDelay="0.00" arrival="157.00" arrivalLane="E3_0" arrivalPos="75.00" arrivalSpeed="11.59" duration="22.00" routeLength="153.95" waitingTime="0.00" waitingCount="0" stopTime="0.00" timeLoss="8.58" rerouteNo="0" devices="tripinfo_135" vType="DEFAULT_VEHTYPE" speedFactor="0.90" vaporized=""/>
    <tripinfo id="143" depart="143.00" departLane="-E5_0" departPos="5.10" departSpeed="0.00" departDelay="0.00" arrival="158.00" arrivalLane="E2_0" arrivalPos="75.00" arrivalSpeed="14.60" duration="15.00" routeLength="159.31" waitingTime="0.00" waitingCount="0" stopTime="0.00" timeLoss="4.06" rerouteNo="0" devices="tripinfo_143" vType="DEFAULT_VEHTYPE" speedFactor="1.12" vaporized=""/>
    <tripinfo id="131" depart="131.00" departLane="-E3_0" departPos="5.10" departSpeed="0.00" departDelay="0.00" arrival="170.00" arrivalLane="E2_0" arrivalPos="75.00" arrivalSpeed="12.98" duration="39.00" routeLength="153.93" waitingTime="15.00" waitingCount="1" stopTime="0.00" timeLoss="26.55" rerouteNo="0" devices="tripinfo_131" vType="DEFAULT_VEHTYPE" speedFactor="1.00" vaporized=""/>
    <tripinfo id="139" depart="139.00" departLane="-E3_0" departPos="5.10" departSpeed="0.00" departDelay="0.00" arrival="172.00" arrivalLane="E4_0" arrivalPos="75.00" arrivalSpeed="12.39" duration="33.00" routeLength="159.31" waitingTime="13.00" waitingCount="1" stopTime="0.00" timeLoss="20.59" rerouteNo="0" devices="tripinfo_139" vType="DEFAULT_VEHTYPE" speedFactor="0.97" vaporized=""/>
    <tripinfo id="148" depart="148.00" departLane="-E3_0" departPos="5.10" departSpeed="0.00" departDelay="0.00" arrival="175.00" arrivalLane="E2_0" arrivalPos="75.00" arrivalSpeed="11.93" duration="27.00" routeLength="153.93" waitingTime="5.00" waitingCount="1" stopTime="0.00" timeLoss="13.80" rerouteNo="0" devices="tripinfo_148" vType="DEFAULT_VEHTYPE" speedFactor="0.94" vaporized=""/>
    <tripinfo id="158" depart="158.00" departLane="-E3_0" departPos="5.10" departSpeed="0.00" departDelay="0.00" arrival="177.00" arrivalLane="E4_0" arrivalPos="75.00" arrivalSpeed="12.40" duration="19.00" routeLength="159.31" waitingTime="0.00" waitingCount="0" stopTime="0.00" timeLoss="5.91" rerouteNo="0" devices="tripinfo_158" vType="DEFAULT_VEHTYPE" speedFactor="0.91" vaporized=""/>
    <tripinfo id="122" depart="122.00" departLane="-E2_0" departPos="5.10" departSpeed="0.00" departDelay="0.00" arrival="186.00" arrivalLane="E4_0" arrivalPos="75.00" arrivalSpeed="13.47" duration="64.00" routeLength="153.94" waitingTime="43.00" waitingCount="1" stopTime="0.00" timeLoss="52.03" rerouteNo="0" devices="tripinfo_122" vType="DEFAULT_VEHTYPE" speedFactor="1.02" vaporized=""/>
    <tripinfo id="124" depart="124.00" departLane="-E4_0" departPos="5.10" departSpeed="0.00" departDelay="0.00" arrival="187.00" arrivalLane="E3_0" arrivalPos="75.00" arrivalSpeed="14.17" duration="63.00" routeLength="159.31" waitingTime="35.00" waitingCount="2" stopTime="0.00" timeLoss="51.83" rerouteNo="0" devices="tripinfo_124" vType="DEFAULT_VEHTYPE" speedFactor="1.10" vaporized=""/>
    <tripinfo id="138" depart="138.00" departLane="-E2_0" departPos="5.10" departSpeed="0.00" departDelay="0.00" arrival="188.00" arrivalLane="E4_0" arrivalPos="75.00" arrivalSpeed="13.53" duration="50.00" routeLength="153.94" waitingTime="30.00" waitingCount="1" stopTime="0.00" timeLoss="38.12" rerouteNo="0" devices="tripinfo_138" vType="DEFAULT_VEHTYPE" speedFactor="1.02" vaporized=""/>
    <tripinfo id="145" depart="145.00" departLane="-E2_0" departPos="5.10" departSpeed="0.00" departDelay="0.00" arrival="191.00" arrivalLane="E5_0" arrivalPos="75.00" arrivalSpeed="13.68" duration="46.00" routeLength="159.30" waitingTime="23.00" waitingCount="1" stopTime="0.00" timeLoss="33.90" rerouteNo="0" devices="tripinfo_145" vType="DEFAULT_VEHTYPE" speedFactor="1.02" vaporized=""/>
    <tripinfo id="149" depart="149.00" departLane="-E2_0" departPos="5.10" departSpeed="0.00" departDelay="0.00" arrival="193.00" arrivalLane="E5_0" arrivalPos="75.00" arrivalSpeed="11.86" duration="44.00" routeLength="159.30" waitingTime="20.00" waitingCount="1" stopTime="0.00" timeLoss="30.77" rerouteNo="0" devices="tripinfo_149" vType="DEFAULT_VEHTYPE" speedFactor="0.88" vaporized=""/>
    <tripinfo id="159" depart="159.00" departLane="-E2_0" departPos="5.10" departSpeed="0.00" departDelay="0.00" arrival="195.00" arrivalLane="E5_0" arrivalPos="75.00" arrivalSpeed="13.99" duration="36.00" routeLength="159.30" waitingTime="13.00" waitingCount="1" stopTime="0.00" timeLoss="24.39" rerouteNo="0" devices="tripinfo_159" vType="DEFAULT_VEHTYPE" speedFactor="1.04" vaporized=""/>
    <tripinfo id="162" depart="162.00" departLane="-E2_0" departPos="5.10" departSpeed="0.00" departDelay="0.00" arrival="198.00" arrivalLane="E4_0" arrivalPos="75.00" arrivalSpeed="13.95" duration="36.00" routeLength="153.94" waitingTime="13.00" waitingCount="1" stopTime="0.00" timeLoss="23.94" rerouteNo="0" devices="tripinfo_162" vType="DEFAULT_VEHTYPE" speedFactor="1.02" vaporized=""/>
    <tripinfo id="168" depart="168.00" departLane="-E2_0" departPos="5.10" departSpeed="0.00" departDelay="0.00" arrival="199.00" arrivalLane="E5_0" arrivalPos="75.00" arrivalSpeed="12.09" duration="31.00" routeLength="159.30" waitingTime="7.00" waitingCount="1" stopTime="0.00" timeLoss="18.69" rerouteNo="0" devices="tripinfo_168" vType="DEFAULT_VEHTYPE" speedFactor="0.94" vaporized=""/>
    <tripinfo id="133" depart="133.00" departLane="-E4_0" departPos="5.10" departSpeed="0.00" departDelay="0.00" arrival="203.00" arrivalLane="E5_0" arrivalPos="75.00" arrivalSpeed="13.36" duration="70.00" routeLength="153.93" waitingTime="38.00" waitingCount="3" stopTime="0.00" timeLoss="57.44" rerouteNo="0" devices="tripinfo_133" vType="DEFAULT_VEHTYPE" speedFactor="1.00" vaporized=""/>
    <tripinfo id="155" depart="155.00" departLane="-E5_0" departPos="5.10" departSpeed="0.00" departDelay="0.00" arrival="203.00" arrivalLane="E2_0" arrivalPos="75.00" arrivalSpeed="12.00" duration="48.00" routeLength="159.31" waitingTime="26.00" waitingCount="1" stopTime="0.00" timeLoss="34.70" rerouteNo="0" devices="tripinfo_155" vType="DEFAULT_VEHTYPE" speedFactor="0.91" vaporized=""/>
    <tripinfo id="136" depart="136.00" departLane="-E4_0" departPos="5.10" departSpeed="0.00" departDelay="0.00" arrival="204.00" arrivalLane="E5_0" arrivalPos="75.00" arrivalSpeed="14.49" duration="68.00" routeLength="153.93" waitingTime="33.00" waitingCount="3" stopTime="0.00" timeLoss="57.69" rerouteNo="0" devices="tripinfo_136" vType="DEFAULT_VEHTYPE" speedFactor="1.14" vaporized=""/>
    <tripinfo id="165" depart="165.00" departLane="-E5_0" departPos="5.10" departSpeed="0.00" departDelay="0.00" arrival="205.00" arrivalLane="E3_0" arrivalPos="75.00" arrivalSpeed="13.98" duration="40.00" routeLength="153.95" waitingTime="18.00" waitingCount="1" stopTime="0.00" timeLoss="27.83" rerouteNo="0" devices="tripinfo_165" vType="DEFAULT_VEHTYPE" speedFactor="1.02" vaporized=""/>
    <tripinfo id="166" depart="168.00" departLane="-E5_0" departPos="5.10" departSpeed="0.00" departDelay="2.00" arrival="207.00" arrivalLane="E2_0" arrivalPos="75.00" arrivalSpeed="13.04" duration="39.00" routeLength="159.31" waitingTime="16.00" waitingCount="1" stopTime="0.00" timeLoss="26.42" rerouteNo="0" devices="tripinfo_166" vType="DEFAULT_VEHTYPE" speedFactor="0.97" vaporized=""/>
    <tripinfo id="170" depart="171.00" departLane="-E5_0" departPos="5.10" departSpeed="0.00" departDelay="1.00" arrival="208.00" arrivalLane="E2_0" arrivalPos="75.00" arrivalSpeed="13.87" duration="37.00" routeLength="159.31" waitingTime="15.00" waitingCount="1" stopTime="0.00" timeLoss="25.92" rerouteNo="0" devices="tripinfo_170" vType="DEFAULT_VEHTYPE" speedFactor="1.06" vaporized=""/>
    <tripinfo id="173" depart="174.00" departLane="-E5_0" departPos="5.10" departSpeed="0.00" departDelay="1.00" arrival="212.00" arrivalLane="E3_0" arrivalPos="75.00" arrivalSpeed="12.97" duration="38.00" routeLength="153.95" waitingTime="14.00" waitingCount="1" stopTime="0.00" timeLoss="25.36" rerouteNo="0" devices="tripinfo_173" vType="DEFAULT_VEHTYPE" speedFactor="0.96" vaporized=""/>
    <tripinfo id="176" depart="177.00" departLane="-E5_0" departPos="5.10" departSpeed="0.00" departDelay="1.00" arrival="214.00" arrivalLane="E2_0" arrivalPos="75.00" arrivalSpeed="13.13" duration="37.00" routeLength="159.31" waitingTime="12.00" waitingCount="1" stopTime="0.00" timeLoss="25.24" rerouteNo="0" devices="tripinfo_176" vType="DEFAULT_VEHTYPE" speedFactor="1.03" vaporized=""/>