<?xml version="1.0" encoding="UTF-8"?>

<!-- generated on 2023-06-10 16:40:48 by Eclipse SUMO sumo Version 1.17.0
<configuration xmlns:xsi="http://www.w3.org/2001/XMLSchema-instance" xsi:noNamespaceSchemaLocation="http://sumo.dlr.de/xsd/sumoConfiguration.xsd">

    <input>
        <net-file value="maps/intersection_2.net.xml"/>
        <route-files value="maps/intersection_2.rou.xml"/>
    </input>

    <output>
        <tripinfo-output value="tripinfo.xml"/>
    </output>

    <time>
        <begin value="0"/>
        <end value="200"/>
    </time>

    <report>
        <verbose value="true"/>
        <no-step-log value="true"/>
    </report>

    <traci_server>
        <remote-port value="49774"/>
    </traci_server>

</configuration>
-->

<tripinfos xmlns:xsi="http://www.w3.org/2001/XMLSchema-instance" xsi:noNamespaceSchemaLocation="http://sumo.dlr.de/xsd/tripinfo_file.xsd">
    <tripinfo id="4" depart="4.00" departLane="-E6_0" departPos="5.10" departSpeed="0.00" departDelay="0.00" arrival="19.00" arrivalLane="-E1_0" arrivalPos="45.09" arrivalSpeed="13.39" duration="15.00" routeLength="122.32" waitingTime="0.00" waitingCount="0" stopTime="0.00" timeLoss="4.89" rerouteNo="0" devices="tripinfo_4" vType="DEFAULT_VEHTYPE" speedFactor="1.03" vaporized=""/>
    <tripinfo id="13" depart="13.00" departLane="-E12_0" departPos="5.10" departSpeed="0.00" departDelay="0.00" arrival="21.00" arrivalLane="-E12_0" arrivalPos="61.57" arrivalSpeed="14.77" duration="8.00" routeLength="56.47" waitingTime="0.00" waitingCount="0" stopTime="0.00" timeLoss="3.91" rerouteNo="0" devices="tripinfo_13" vType="DEFAULT_VEHTYPE" speedFactor="1.12" vaporized=""/>
    <tripinfo id="16" depart="16.00" departLane="E1_0" departPos="5.10" departSpeed="0.00" departDelay="0.00" arrival="38.00" arrivalLane="E8_0" arrivalPos="58.00" arrivalSpeed="11.58" duration="22.00" routeLength="185.74" waitingTime="0.00" waitingCount="0" stopTime="0.00" timeLoss="5.66" rerouteNo="0" devices="tripinfo_16" vType="DEFAULT_VEHTYPE" speedFactor="0.88" vaporized=""/>
    <tripinfo id="0" depart="0.00" departLane="E14_0" departPos="5.10" departSpeed="0.00" departDelay="0.00" arrival="43.00" arrivalLane="-E1_0" arrivalPos="45.09" arrivalSpeed="14.24" duration="43.00" routeLength="328.28" waitingTime="7.00" waitingCount="1" stopTime="0.00" timeLoss="19.31" rerouteNo="0" devices="tripinfo_0" vType="DEFAULT_VEHTYPE" speedFactor="1.06" vaporized=""/>
    <tripinfo id="3" depart="3.00" departLane="E4_0" departPos="5.10" departSpeed="0.00" departDelay="0.00" arrival="47.00" arrivalLane="-E12_1" arrivalPos="61.57" arrivalSpeed="14.85" duration="44.00" routeLength="418.07" waitingTime="1.00" waitingCount="1" stopTime="0.00" timeLoss="13.27" rerouteNo="0" devices="tripinfo_3" vType="DEFAULT_VEHTYPE" speedFactor="1.08" vaporized=""/>
    <tripinfo id="11" depart="11.00" departLane="-E23_0" departPos="5.10" departSpeed="0.00" departDelay="0.00" arrival="47.00" arrivalLane="-E15_1" arrivalPos="45.99" arrivalSpeed="13.70" duration="36.00" routeLength="248.01" waitingTime="2.00" waitingCount="1" stopTime="0.00" timeLoss="15.18" rerouteNo="0" devices="tripinfo_11" vType="DEFAULT_VEHTYPE" speedFactor="1.03" vaporized=""/>
    <tripinfo id="17" depart="17.00" departLane="-E4_0" departPos="5.10" departSpeed="0.00" departDelay="0.00" arrival="48.00" arrivalLane="E10_0" arrivalPos="66.05" arrivalSpeed="12.03" duration="31.00" routeLength="291.18" waitingTime="0.00" waitingCount="0" stopTime="0.00" timeLoss="6.67" rerouteNo="0" devices="tripinfo_17" vType="DEFAULT_VEHTYPE" speedFactor="0.94" vaporized=""/>
    <tripinfo id="10" depart="11.00" departLane="E21_0" departPos="5.10" departSpeed="0.00" departDelay="1.00" arrival="49.00" arrivalLane="E17_1" arrivalPos="44.74" arrivalSpeed="14.23" duration="38.00" routeLength="267.40" waitingTime="4.00" waitingCount="1" stopTime="0.00" timeLoss="17.72" rerouteNo="0" devices="tripinfo_10" vType="DEFAULT_VEHTYPE" speedFactor="1.09" vaporized=""/>
    <tripinfo id="12" depart="12.00" departLane="E7_0" departPos="5.10" departSpeed="0.00" departDelay="0.00" arrival="51.00" arrivalLane="-E23_0" arrivalPos="66.02" arrivalSpeed="13.67" duration="39.00" routeLength="360.64" waitingTime="0.00" waitingCount="0" stopTime="0.00" timeLoss="13.11" rerouteNo="0" devices="tripinfo_12" vType="DEFAULT_VEHTYPE" speedFactor="1.05" vaporized=""/>
    <tripinfo id="2" depart="2.00" departLane="E19_0" departPos="5.10" departSpeed="0.00" departDelay="0.00" arrival="57.00" arrivalLane="E16_0" arrivalPos="61.87" arrivalSpeed="13.52" duration="55.00" routeLength="300.93" waitingTime="16.00" waitingCount="1" stopTime="0.00" timeLoss="31.65" rerouteNo="0" devices="tripinfo_2" vType="DEFAULT_VEHTYPE" speedFactor="1.01" vaporized=""/>
    <tripinfo id="26" depart="26.00" departLane="-E2_0" departPos="5.10" departSpeed="0.00" departDelay="0.00" arrival="59.00" arrivalLane="E6_0" arrivalPos="64.35" arrivalSpeed="11.69" duration="33.00" routeLength="276.85" waitingTime="0.00" waitingCount="0" stopTime="0.00" timeLoss="9.14" rerouteNo="0" devices="tripinfo_26" vType="DEFAULT_VEHTYPE" speedFactor="0.92" vaporized=""/>
    <tripinfo id="15" depart="15.00" departLane="E21_0" departPos="5.10" departSpeed="0.00" departDelay="0.00" arrival="64.00" arrivalLane="E19_0" arrivalPos="41.66" arrivalSpeed="12.13" duration="49.00" routeLength="238.58" waitingTime="12.00" waitingCount="1" stopTime="0.00" timeLoss="27.90" rerouteNo="0" devices="tripinfo_15" vType="DEFAULT_VEHTYPE" speedFactor="0.93" vaporized=""/>
    <tripinfo id="47" depart="47.00" departLane="-E11_0" departPos="5.10" departSpeed="0.00" departDelay="0.00" arrival="64.00" arrivalLane="-E4_0" arrivalPos="70.00" arrivalSpeed="12.25" duration="17.00" routeLength="120.95" waitingTime="0.00" waitingCount="0" stopTime="0.00" timeLoss="5.57" rerouteNo="0" devices="tripinfo_47" vType="DEFAULT_VEHTYPE" speedFactor="0.90" vaporized=""/>
    <tripinfo id="23" depart="23.00" departLane="-E12_0" departPos="5.10" departSpeed="0.00" departDelay="0.00" arrival="68.00" arrivalLane="-E20_0" arrivalPos="46.32" arrivalSpeed="11.87" duration="45.00" routeLength="433.10" waitingTime="0.00" waitingCount="0" stopTime="0.00" timeLoss="7.78" rerouteNo="0" devices="tripinfo_23" vType="DEFAULT_VEHTYPE" speedFactor="0.89" vaporized=""/>
    <tripinfo id="21" depart="22.00" departLane="-E18_0" departPos="5.10" departSpeed="0.00" departDelay="1.00" arrival="75.00" arrivalLane="-E20_1" arrivalPos="46.32" arrivalSpeed="13.34" duration="53.00" routeLength="297.53" waitingTime="12.00" waitingCount="1" stopTime="0.00" timeLoss="28.57" rerouteNo="0" devices="tripinfo_21" vType="DEFAULT_VEHTYPE" speedFactor="1.01" vaporized=""/>
    <tripinfo id="28" depart="28.00" departLane="-E16_0" departPos="5.10" departSpeed="0.00" departDelay="0.00" arrival="75.00" arrivalLane="E18_1" arrivalPos="41.73" arrivalSpeed="13.33" duration="47.00" routeLength="195.31" waitingTime="12.00" waitingCount="2" stopTime="0.00" timeLoss="33.36" rerouteNo="0" devices="tripinfo_28" vType="DEFAULT_VEHTYPE" speedFactor="1.13" vaporized=""/>
    <tripinfo id="9" depart="9.00" departLane="E21_0" departPos="5.10" departSpeed="0.00" departDelay="0.00" arrival="78.00" arrivalLane="-E0_1" arrivalPos="61.96" arrivalSpeed="11.65" duration="69.00" routeLength="417.39" waitingTime="13.00" waitingCount="1" stopTime="0.00" timeLoss="29.82" rerouteNo="0" devices="tripinfo_9" vType="DEFAULT_VEHTYPE" speedFactor="0.86" vaporized=""/>
    <tripinfo id="56" depart="56.00" departLane="E0_0" departPos="5.10" departSpeed="0.00" departDelay="0.00" arrival="81.00" arrivalLane="-E16_0" arrivalPos="61.87" arrivalSpeed="11.29" duration="25.00" routeLength="182.87" waitingTime="0.00" waitingCount="0" stopTime="0.00" timeLoss="8.10" rerouteNo="0" devices="tripinfo_56" vType="DEFAULT_VEHTYPE" speedFactor="0.90" vaporized=""/>
    <tripinfo id="43" depart="43.00" departLane="E9_0" departPos="5.10" departSpeed="0.00" departDelay="0.00" arrival="94.00" arrivalLane="E0_1" arrivalPos="61.96" arrivalSpeed="10.04" duration="51.00" routeLength="260.14" waitingTime="18.00" waitingCount="1" stopTime="0.00" timeLoss="30.25" rerouteNo="0" devices="tripinfo_43" vType="DEFAULT_VEHTYPE" speedFactor="1.04" vaporized=""/>
    <tripinfo id="76" depart="76.00" departLane="-E7_0" departPos="5.10" departSpeed="0.00" departDelay="0.00" arrival="96.00" arrivalLane="E0_1" arrivalPos="61.96" arrivalSpeed="13.59" duration="20.00" routeLength="117.16" waitingTime="2.00" waitingCount="1" stopTime="0.00" timeLoss="10.81" rerouteNo="0" devices="tripinfo_76" vType="DEFAULT_VEHTYPE" speedFactor="1.03" vaporized=""/>
    <tripinfo id="68" depart="68.00" departLane="-E11_0" departPos="5.10" departSpeed="0.00" departDelay="0.00" arrival="97.00" arrivalLane="E2_1" arrivalPos="70.00" arrivalSpeed="9.92" duration="29.00" routeLength="211.86" waitingTime="0.00" waitingCount="0" stopTime="0.00" timeLoss="13.18" rerouteNo="0" devices="tripinfo_68" vType="DEFAULT_VEHTYPE" speedFactor="1.04" vaporized=""/>
    <tripinfo id="64" depart="64.00" departLane="E4_0" departPos="5.10" departSpeed="0.00" departDelay="0.00" arrival="100.00" arrivalLane="E22_0" arrivalPos="56.14" arrivalSpeed="12.54" duration="36.00" routeLength="358.11" waitingTime="0.00" waitingCount="0" stopTime="0.00" timeLoss="7.02" rerouteNo="0" devices="tripinfo_64" vType="DEFAULT_VEHTYPE" speedFactor="0.94" vaporized=""/>
    <tripinfo id="58" depart="58.00" departLane="-E21_0" departPos="5.10" departSpeed="0.00" departDelay="0.00" arrival="102.00" arrivalLane="E14_1" arrivalPos="45.98" arrivalSpeed="13.33" duration="44.00" routeLength="322.03" waitingTime="2.00" waitingCount="1" stopTime="0.00" timeLoss="18.95" rerouteNo="0" devices="tripinfo_58" vType="DEFAULT_VEHTYPE" speedFactor="1.02" vaporized=""/>
    <tripinfo id="61" depart="61.00" departLane="E20_0" departPos="5.10" departSpeed="0.00" departDelay="0.00" arrival="103.00" arrivalLane="E1_0" arrivalPos="45.09" arrivalSpeed="14.43" duration="42.00" routeLength="454.83" waitingTime="0.00" waitingCount="0" stopTime="0.00" timeLoss="11.93" rerouteNo="0" devices="tripinfo_61" vType="DEFAULT_VEHTYPE" speedFactor="1.12" vaporized=""/>
    <tripinfo id="24" depart="24.00" departLane="E14_0" departPos="5.10" departSpeed="0.00" departDelay="0.00" arrival="105.00" arrivalLane="-E3_0" arrivalPos="70.00" arrivalSpeed="7.17" duration="81.00" routeLength="394.53" waitingTime="16.00" waitingCount="2" stopTime="0.00" timeLoss="42.68" rerouteNo="0" devices="tripinfo_24" vType="DEFAULT_VEHTYPE" speedFactor="0.83" vaporized=""/>
    <tripinfo id="57" depart="59.00" departLane="E5_0" departPos="5.10" departSpeed="0.00" departDelay="2.00" arrival="107.00" arrivalLane="E3_0" arrivalPos="70.00" arrivalSpeed="11.73" duration="48.00" routeLength="155.81" waitingTime="26.00" waitingCount="1" stopTime="0.00" timeLoss="37.81" rerouteNo="0" devices="tripinfo_57" vType="DEFAULT_VEHTYPE" speedFactor="1.14" vaporized=""/>
    <tripinfo id="74" depart="77.00" departLane="-E17_0" departPos="5.10" departSpeed="0.00" departDelay="3.00" arrival="109.00" arrivalLane="-E21_0" arrivalPos="66.26" arrivalSpeed="12.95" duration="32.00" routeLength="236.46" waitingTime="0.00" waitingCount="0" stopTime="0.00" timeLoss="11.37" rerouteNo="0" devices="tripinfo_74" vType="DEFAULT_VEHTYPE" speedFactor="0.96" vaporized=""/>
    <tripinfo id="1" depart="1.00" departLane="-E20_0" departPos="5.10" departSpeed="0.00" departDelay="0.00" arrival="111.00" arrivalLane="-E18_0" arrivalPos="41.73" arrivalSpeed="9.42" duration="110.00" routeLength="299.60" waitingTime="60.00" waitingCount="3" stopTime="0.00" timeLoss="84.20" rerouteNo="0" devices="tripinfo_1" vType="DEFAULT_VEHTYPE" speedFactor="0.94" vaporized=""/>
    <tripinfo id="71" depart="71.00" departLane="-E2_0" departPos="5.10" departSpeed="0.00" departDelay="0.00" arrival="111.00" arrivalLane="E3_0" arrivalPos="70.00" arrivalSpeed="5.25" duration="40.00" routeLength="154.32" waitingTime="19.00" waitingCount="1" stopTime="0.00" timeLoss="27.80" rerouteNo="0" devices="tripinfo_71" vType="DEFAULT_VEHTYPE" speedFactor="0.97" vaporized=""/>
    <tripinfo id="6" depart="6.00" departLane="-E1_0" departPos="5.10" departSpeed="0.00" departDelay="0.00" arrival="113.00" arrivalLane="-E17_1" arrivalPos="44.74" arrivalSpeed="13.93" duration="107.00" routeLength="367.36" waitingTime="57.00" waitingCount="2" stopTime="0.00" timeLoss="78.28" rerouteNo="0" devices="tripinfo_6" vType="DEFAULT_VEHTYPE" speedFactor="1.05" vaporized=""/>
    <tripinfo id="78" depart="78.00" departLane="-E23_0" departPos="5.10" departSpeed="0.00" departDelay="0.00" arrival="113.00" arrivalLane="E12_0" arrivalPos="61.57" arrivalSpeed="13.13" duration="35.00" routeLength="343.02" waitingTime="0.00" waitingCount="0" stopTime="0.00" timeLoss="9.34" rerouteNo="0" devices="tripinfo_78" vType="DEFAULT_VEHTYPE" speedFactor="1.01" vaporized=""/>
    <tripinfo id="83" depart="83.00" departLane="-E19_0" departPos="5.10" departSpeed="0.00" departDelay="0.00" arrival="115.00" arrivalLane="E16_0" arrivalPos="61.87" arrivalSpeed="13.09" duration="32.00" routeLength="107.60" waitingTime="11.00" waitingCount="1" stopTime="0.00" timeLoss="22.41" rerouteNo="0" devices="tripinfo_83" vType="DEFAULT_VEHTYPE" speedFactor="0.97" vaporized=""/>
    <tripinfo id="53" depart="53.00" departLane="-E13_0" departPos="5.10" departSpeed="0.00" departDelay="0.00" arrival="116.00" arrivalLane="-E6_1" arrivalPos="64.35" arrivalSpeed="14.23" duration="63.00" routeLength="305.27" waitingTime="24.00" waitingCount="2" stopTime="0.00" timeLoss="41.35" rerouteNo="0" devices="tripinfo_53" vType="DEFAULT_VEHTYPE" speedFactor="1.10" vaporized=""/>
    <tripinfo id="72" depart="72.00" departLane="-E6_0" departPos="5.10" departSpeed="0.00" departDelay="0.00" arrival="116.00" arrivalLane="-E18_1" arrivalPos="41.73" arrivalSpeed="4.74" duration="44.00" routeLength="390.81" waitingTime="0.00" waitingCount="0" stopTime="0.00" timeLoss="11.97" rerouteNo="0" devices="tripinfo_72" vType="DEFAULT_VEHTYPE" speedFactor="0.94" vaporized=""/>
    <tripinfo id="19" depart="19.00" departLane="E3_0" departPos="5.10" departSpeed="0.00" departDelay="0.00" arrival="117.00" arrivalLane="E11_1" arrivalPos="46.99" arrivalSpeed="15.18" duration="98.00" routeLength="452.87" waitingTime="37.00" waitingCount="4" stopTime="0.00" timeLoss="67.39" rerouteNo="0" devices="tripinfo_19" vType="DEFAULT_VEHTYPE" speedFactor="1.16" vaporized=""/>
    <tripinfo id="62" depart="62.00" departLane="-E0_0" departPos="5.10" departSpeed="0.00" departDelay="0.00" arrival="117.00" arrivalLane="-E22_0" arrivalPos="56.14" arrivalSpeed="13.15" duration="55.00" routeLength="249.98" waitingTime="21.00" waitingCount="1" stopTime="0.00" timeLoss="35.62" rerouteNo="0" devices="tripinfo_62" vType="DEFAULT_VEHTYPE" speedFactor="1.02" vaporized=""/>
    <tripinfo id="67" depart="67.00" departLane="-E12_0" departPos="5.10" departSpeed="0.00" departDelay="0.00" arrival="117.00" arrivalLane="-E9_1" arrivalPos="44.68" arrivalSpeed="11.80" duration="50.00" routeLength="468.52" waitingTime="0.00" waitingCount="0" stopTime="0.00" timeLoss="10.84" rerouteNo="0" devices="tripinfo_67" vType="DEFAULT_VEHTYPE" speedFactor="0.91" vaporized=""/>
    <tripinfo id="82" depart="82.00" departLane="E3_0" departPos="5.10" departSpeed="0.00" departDelay="0.00" arrival="117.00" arrivalLane="-E11_0" arrivalPos="46.99" arrivalSpeed="13.77" duration="35.00" routeLength="191.58" waitingTime="7.00" waitingCount="1" stopTime="0.00" timeLoss="19.27" rerouteNo="0" devices="tripinfo_82" vType="DEFAULT_VEHTYPE" speedFactor="1.02" vaporized=""/>
    <tripinfo id="14" depart="14.00" departLane="E23_0" departPos="5.10" departSpeed="0.00" departDelay="0.00" arrival="118.00" arrivalLane="E12_0" arrivalPos="61.57" arrivalSpeed="12.71" duration="104.00" routeLength="533.36" waitingTime="24.00" waitingCount="2" stopTime="0.00" timeLoss="60.96" rerouteNo="0" devices="tripinfo_14" vType="DEFAULT_VEHTYPE" speedFactor="0.99" vaporized=""/>
    <tripinfo id="90" depart="91.00" departLane="E18_0" departPos="5.10" departSpeed="0.00" departDelay="1.00" arrival="118.00" arrivalLane="E16_0" arrivalPos="61.87" arrivalSpeed="13.78" duration="27.00" routeLength="244.19" waitingTime="0.00" waitingCount="0" stopTime="0.00" timeLoss="7.98" rerouteNo="0" devices="tripinfo_90" vType="DEFAULT_VEHTYPE" speedFactor="1.02" vaporized=""/>
    <tripinfo id="85" depart="85.00" departLane="E6_0" departPos="5.10" departSpeed="0.00" departDelay="0.00" arrival="120.00" arrivalLane="E11_1" arrivalPos="46.99" arrivalSpeed="13.09" duration="35.00" routeLength="283.76" waitingTime="0.00" waitingCount="0" stopTime="0.00" timeLoss="11.36" rerouteNo="0" devices="tripinfo_85" vType="DEFAULT_VEHTYPE" speedFactor="0.98" vaporized=""/>
    <tripinfo id="101" depart="101.00" departLane="E23_0" departPos="5.10" departSpeed="0.00" departDelay="0.00" arrival="121.00" arrivalLane="-E15_0" arrivalPos="45.99" arrivalSpeed="13.15" duration="20.00" routeLength="192.09" waitingTime="0.00" waitingCount="0" stopTime="0.00" timeLoss="3.96" rerouteNo="0" devices="tripinfo_101" vType="DEFAULT_VEHTYPE" speedFactor="0.96" vaporized=""/>
    <tripinfo id="31" depart="31.00" departLane="E10_0" departPos="5.10" departSpeed="0.00" departDelay="0.00" arrival="122.00" arrivalLane="E16_1" arrivalPos="61.87" arrivalSpeed="15.76" duration="91.00" routeLength="325.97" waitingTime="44.00" waitingCount="2" stopTime="0.00" timeLoss="67.49" rerouteNo="0" devices="tripinfo_31" vType="DEFAULT_VEHTYPE" speedFactor="1.15" vaporized=""/>
    <tripinfo id="77" depart="77.00" departLane="-E13_0" departPos="5.10" departSpeed="0.00" departDelay="0.00" arrival="124.00" arrivalLane="-E18_1" arrivalPos="41.73" arrivalSpeed="12.80" duration="47.00" routeLength="338.43" waitingTime="1.00" waitingCount="1" stopTime="0.00" timeLoss="19.80" rerouteNo="0" devices="tripinfo_77" vType="DEFAULT_VEHTYPE" speedFactor="0.98" vaporized=""/>
    <tripinfo id="22" depart="22.00" departLane="-E11_0" departPos="5.10" departSpeed="0.00" departDelay="0.00" arrival="126.00" arrivalLane="-E19_1" arrivalPos="41.66" arrivalSpeed="13.52" duration="104.00" routeLength="399.22" waitingTime="52.00" waitingCount="2" stopTime="0.00" timeLoss="71.34" rerouteNo="0" devices="tripinfo_22" vType="DEFAULT_VEHTYPE" speedFactor="0.97" vaporized=""/>
    <tripinfo id="45" depart="45.00" departLane="-E13_0" departPos="5.10" departSpeed="0.00" departDelay="0.00" arrival="128.00" arrivalLane="E14_0" arrivalPos="45.98" arrivalSpeed="6.45" duration="83.00" routeLength="315.97" waitingTime="33.00" waitingCount="3" stopTime="0.00" timeLoss="59.88" rerouteNo="0" devices="tripinfo_45" vType="DEFAULT_VEHTYPE" speedFactor="1.09" vaporized=""/>
    <tripinfo id="5" depart="5.00" departLane="-E18_0" departPos="5.10" departSpeed="0.00" departDelay="0.00" arrival="129.00" arrivalLane="E0_1" arrivalPos="61.96" arrivalSpeed="8.59" duration="124.00" routeLength="238.73" waitingTime="79.00" waitingCount="3" stopTime="0.00" timeLoss="100.91" rerouteNo="0" devices="tripinfo_5" vType="DEFAULT_VEHTYPE" speedFactor="0.83" vaporized=""/>
    <tripinfo id="7" depart="7.00" departLane="E15_0" departPos="5.10" departSpeed="0.00" departDelay="0.00" arrival="130.00" arrivalLane="E10_0" arrivalPos="66.05" arrivalSpeed="11.38" duration="123.00" routeLength="303.71" waitingTime="76.00" waitingCount="2" stopTime="0.00" timeLoss="95.20" rerouteNo="0" devices="tripinfo_7" vType="DEFAULT_VEHTYPE" speedFactor="0.89" vaporized=""/>
    <tripinfo id="127" depart="127.00" departLane="E9_0" departPos="5.10" departSpeed="0.00" departDelay="0.00" arrival="133.00" arrivalLane="E9_0" arrivalPos="44.68" arrivalSpeed="11.14" duration="6.00" routeLength="39.58" waitingTime="0.00" waitingCount="0" stopTime="0.00" timeLoss="2.36" rerouteNo="0" devices="tripinfo_127" vType="DEFAULT_VEHTYPE" speedFactor="0.82" vaporized=""/>
    <tripinfo id="121" depart="121.00" departLane="E1_0" departPos="5.10" departSpeed="0.00" departDelay="0.00" arrival="136.00" arrivalLane="E6_0" arrivalPos="64.35" arrivalSpeed="14.25" duration="15.00" routeLength="106.91" waitingTime="0.00" waitingCount="0" stopTime="0.00" timeLoss="6.51" rerouteNo="0" devices="tripinfo_121" vType="DEFAULT_VEHTYPE" speedFactor="1.10" vaporized=""/>
    <tripinfo id="33" depart="33.00" departLane="-E18_0" departPos="5.10" departSpeed="0.00" departDelay="0.00" arrival="137.00" arrivalLane="-E1_1" arrivalPos="45.09" arrivalSpeed="15.97" duration="104.00" routeLength="360.09" waitingTime="58.00" waitingCount="2" stopTime="0.00" timeLoss="79.87" rerouteNo="0" devices="tripinfo_33" vType="DEFAULT_VEHTYPE" speedFactor="1.17" vaporized=""/>
    <tripinfo id="39" depart="39.00" departLane="-E2_0" departPos="5.10" departSpeed="0.00" departDelay="0.00" arrival="137.00" arrivalLane="-E19_1" arrivalPos="41.66" arrivalSpeed="11.52" duration="98.00" routeLength="353.38" waitingTime="43.00" waitingCount="4" stopTime="0.00" timeLoss="66.76" rerouteNo="0" devices="tripinfo_39" vType="DEFAULT_VEHTYPE" speedFactor="0.90" vaporized=""/>
    <tripinfo id="8" depart="8.00" departLane="-E18_0" departPos="5.10" departSpeed="0.00" departDelay="0.00" arrival="138.00" arrivalLane="E12_1" arrivalPos="61.57" arrivalSpeed="11.83" duration="130.00" routeLength="364.33" waitingTime="83.00" waitingCount="2" stopTime="0.00" timeLoss="99.77" rerouteNo="0" devices="tripinfo_8" vType="DEFAULT_VEHTYPE" speedFactor="0.94" vaporized=""/>
    <tripinfo id="130" depart="130.00" departLane="E4_0" departPos="5.10" departSpeed="0.00" departDelay="0.00" arrival="138.00" arrivalLane="E4_0" arrivalPos="70.00" arrivalSpeed="13.15" duration="8.00" routeLength="64.90" waitingTime="0.00" waitingCount="0" stopTime="0.00" timeLoss="3.47" rerouteNo="0" devices="tripinfo_130" vType="DEFAULT_VEHTYPE" speedFactor="1.03" vaporized=""/>
    <tripinfo id="79" depart="79.00" departLane="-E19_0" departPos="5.10" departSpeed="0.00" departDelay="0.00" arrival="140.00" arrivalLane="-E18_1" arrivalPos="41.73" arrivalSpeed="8.42" duration="61.00" routeLength="359.29" waitingTime="14.00" waitingCount="1" stopTime="0.00" timeLoss="34.85" rerouteNo="0" devices="tripinfo_79" vType="DEFAULT_VEHTYPE" speedFactor="1.09" vaporized=""/>
    <tripinfo id="93" depart="93.00" departLane="E3_0" departPos="5.10" departSpeed="0.00" departDelay="0.00" arrival="140.00" arrivalLane="-E19_1" arrivalPos="41.66" arrivalSpeed="11.60" duration="47.00" routeLength="263.96" waitingTime="3.00" waitingCount="1" stopTime="0.00" timeLoss="24.34" rerouteNo="0" devices="tripinfo_93" vType="DEFAULT_VEHTYPE" speedFactor="0.92" vaporized=""/>
    <tripinfo id="94" depart="94.00" departLane="-E17_0" departPos="5.10" departSpeed="0.00" departDelay="0.00" arrival="142.00" arrivalLane="-E7_0" arrivalPos="40.89" arrivalSpeed="9.13" duration="48.00" routeLength="368.97" waitingTime="0.00" waitingCount="0" stopTime="0.00" timeLoss="22.54" rerouteNo="0" devices="tripinfo_94" vType="DEFAULT_VEHTYPE" speedFactor="1.09" vaporized=""/>
    <tripinfo id="32" depart="32.00" departLane="E23_0" departPos="5.10" departSpeed="0.00" departDelay="0.00" arrival="143.00" arrivalLane="E20_0" arrivalPos="46.32" arrivalSpeed="13.75" duration="111.00" routeLength="449.69" waitingTime="45.00" waitingCount="2" stopTime="0.00" timeLoss="73.85" rerouteNo="0" devices="tripinfo_32" vType="DEFAULT_VEHTYPE" speedFactor="1.01" vaporized=""/>
    <tripinfo id="41" depart="41.00" departLane="E12_0" departPos="5.10" departSpeed="0.00" departDelay="0.00" arrival="144.00" arrivalLane="E5_1" arrivalPos="70.00" arrivalSpeed="13.01" duration="103.00" routeLength="427.77" waitingTime="49.00" waitingCount="2" stopTime="0.00" timeLoss="68.86" rerouteNo="0" devices="tripinfo_41" vType="DEFAULT_VEHTYPE" speedFactor="0.96" vaporized=""/>
    <tripinfo id="95" depart="95.00" departLane="-E6_0" departPos="5.10" departSpeed="0.00" departDelay="0.00" arrival="144.00" arrivalLane="-E20_0" arrivalPos="46.32" arrivalSpeed="14.53" duration="49.00" routeLength="568.12" waitingTime="0.00" waitingCount="0" stopTime="0.00" timeLoss="7.45" rerouteNo="0" devices="tripinfo_95" vType="DEFAULT_VEHTYPE" speedFactor="1.06" vaporized=""/>
    <tripinfo id="20" depart="20.00" departLane="E17_0" departPos="5.10" departSpeed="0.00" departDelay="0.00" arrival="147.00" arrivalLane="-E10_1" arrivalPos="66.05" arrivalSpeed="13.42" duration="127.00" routeLength="542.99" waitingTime="60.00" waitingCount="2" stopTime="0.00" timeLoss="84.88" rerouteNo="0" devices="tripinfo_20" vType="DEFAULT_VEHTYPE" speedFactor="1.02" vaporized=""/>
    <tripinfo id="55" depart="55.00" departLane="E4_0" departPos="5.10" departSpeed="0.00" departDelay="0.00" arrival="148.00" arrivalLane="-E2_0" arrivalPos="70.00" arrivalSpeed="5.87" duration="93.00" routeLength="393.79" waitingTime="38.00" waitingCount="2" stopTime="0.00" timeLoss="62.57" rerouteNo="0" devices="tripinfo_55" vType="DEFAULT_VEHTYPE" speedFactor="1.00" vaporized=""/>
    <tripinfo id="92" depart="92.00" departLane="-E5_0" departPos="5.10" departSpeed="0.00" departDelay="0.00" arrival="148.00" arrivalLane="-E23_1" arrivalPos="66.02" arrivalSpeed="11.32" duration="56.00" routeLength="478.85" waitingTime="0.00" waitingCount="0" stopTime="0.00" timeLoss="11.70" rerouteNo="0" devices="tripinfo_92" vType="DEFAULT_VEHTYPE" speedFactor="0.83" vaporized=""/>
    <tripinfo id="120" depart="120.00" departLane="-E6_0" departPos="5.10" departSpeed="0.00" departDelay="0.00" arrival="149.00" arrivalLane="E12_1" arrivalPos="61.57" arrivalSpeed="12.73" duration="29.00" routeLength="266.01" waitingTime="0.00" waitingCount="0" stopTime="0.00" timeLoss="6.67" rerouteNo="0" devices="tripinfo_120" vType="DEFAULT_VEHTYPE" speedFactor="0.94" vaporized=""/>
    <tripinfo id="81" depart="81.00" departLane="-E18_0" departPos="5.10" departSpeed="0.00" departDelay="0.00" arrival="151.00" arrivalLane="E5_0" arrivalPos="70.00" arrivalSpeed="13.59" duration="70.00" routeLength="385.57" waitingTime="23.00" waitingCount="2" stopTime="0.00" timeLoss="39.61" rerouteNo="0" devices="tripinfo_81" vType="DEFAULT_VEHTYPE" speedFactor="1.00" vaporized=""/>
    <tripinfo id="112" depart="112.00" departLane="-E10_0" departPos="5.10" departSpeed="0.00" departDelay="0.00" arrival="151.00" arrivalLane="E12_1" arrivalPos="61.57" arrivalSpeed="14.14" duration="39.00" routeLength="436.79" waitingTime="0.00" waitingCount="0" stopTime="0.00" timeLoss="9.13" rerouteNo="0" devices="tripinfo_112" vType="DEFAULT_VEHTYPE" speedFactor="1.10" vaporized=""/>
    <tripinfo id="37" depart="37.00" departLane="E15_0" departPos="5.10" departSpeed="0.00" departDelay="0.00" arrival="156.00" arrivalLane="-E4_0" arrivalPos="70.00" arrivalSpeed="6.78" duration="119.00" routeLength="406.88" waitingTime="53.00" waitingCount="3" stopTime="0.00" timeLoss="92.00" rerouteNo="0" devices="tripinfo_37" vType="DEFAULT_VEHTYPE" speedFactor="1.18" vaporized=""/>
    <tripinfo id="124" depart="124.00" departLane="E16_0" departPos="5.10" departSpeed="0.00" departDelay="0.00" arrival="158.00" arrivalLane="-E21_0" arrivalPos="66.26" arrivalSpeed="14.14" duration="34.00" routeLength="344.72" waitingTime="0.00" waitingCount="0" stopTime="0.00" timeLoss="9.77" rerouteNo="0" devices="tripinfo_124" vType="DEFAULT_VEHTYPE" speedFactor="1.06" vaporized=""/>
    <tripinfo id="126" depart="126.00" departLane="-E11_0" departPos="5.10" departSpeed="0.00" departDelay="0.00" arrival="160.00" arrivalLane="-E7_0" arrivalPos="40.89" arrivalSpeed="13.36" duration="34.00" routeLength="303.43" waitingTime="0.00" waitingCount="0" stopTime="0.00" timeLoss="10.81" rerouteNo="0" devices="tripinfo_126" vType="DEFAULT_VEHTYPE" speedFactor="1.03" vaporized=""/>
    <tripinfo id="140" depart="140.00" departLane="E18_0" departPos="5.10" departSpeed="0.00" departDelay="0.00" arrival="161.00" arrivalLane="-E17_0" arrivalPos="44.74" arrivalSpeed="14.02" duration="21.00" routeLength="159.25" waitingTime="0.00" waitingCount="0" stopTime="0.00" timeLoss="9.19" rerouteNo="0" devices="tripinfo_140" vType="DEFAULT_VEHTYPE" speedFactor="1.11" vaporized=""/>
    <tripinfo id="117" depart="117.00" departLane="-E19_0" departPos="5.10" departSpeed="0.00" departDelay="0.00" arrival="164.00" arrivalLane="-E13_1" arrivalPos="56.56" arrivalSpeed="5.27" duration="47.00" routeLength="112.50" waitingTime="28.00" waitingCount="1" stopTime="0.00" timeLoss="38.23" rerouteNo="0" devices="tripinfo_117" vType="DEFAULT_VEHTYPE" speedFactor="1.00" vaporized=""/>
    <tripinfo id="48" depart="48.00" departLane="E9_0" departPos="5.10" departSpeed="0.00" departDelay="0.00" arrival="165.00" arrivalLane="E1_0" arrivalPos="45.09" arrivalSpeed="11.76" duration="117.00" routeLength="402.92" waitingTime="57.00" waitingCount="3" stopTime="0.00" timeLoss="80.90" rerouteNo="0" devices="tripinfo_48" vType="DEFAULT_VEHTYPE" speedFactor="0.88" vaporized=""/>
    <tripinfo id="50" depart="50.00" departLane="-E0_0" departPos="5.10" departSpeed="0.00" departDelay="0.00" arrival="169.00" arrivalLane="E18_1" arrivalPos="41.73" arrivalSpeed="10.98" duration="119.00" routeLength="249.06" waitingTime="76.00" waitingCount="3" stopTime="0.00" timeLoss="94.52" rerouteNo="0" devices="tripinfo_50" vType="DEFAULT_VEHTYPE" speedFactor="0.85" vaporized=""/>
    <tripinfo id="106" depart="133.00" departLane="-E7_0" departPos="5.10" departSpeed="0.00" departDelay="27.00" arrival="173.00" arrivalLane="-E6_1" arrivalPos="64.35" arrivalSpeed="13.87" duration="40.00" routeLength="277.89" waitingTime="1.00" waitingCount="1" stopTime="0.00" timeLoss="18.05" rerouteNo="0" devices="tripinfo_106" vType="DEFAULT_VEHTYPE" speedFactor="1.01" vaporized=""/>