<?xml version="1.0" encoding="UTF-8"?>

<!-- generated on 2023-05-12 21:12:50 by Eclipse SUMO GUI Version 1.17.0
<configuration xmlns:xsi="http://www.w3.org/2001/XMLSchema-instance" xsi:noNamespaceSchemaLocation="http://sumo.dlr.de/xsd/sumoConfiguration.xsd">

    <input>
        <net-file value="maps/intersection_1.net.xml"/>
        <route-files value="maps/intersection_1.rou.xml"/>
    </input>

    <output>
        <tripinfo-output value="tripinfo.xml"/>
    </output>

    <time>
        <begin value="0"/>
        <end value="200"/>
    </time>

    <report>
        <verbose value="true"/>
        <no-step-log value="true"/>
    </report>

    <traci_server>
        <remote-port value="52659"/>
    </traci_server>

</configuration>
-->

<tripinfos xmlns:xsi="http://www.w3.org/2001/XMLSchema-instance" xsi:noNamespaceSchemaLocation="http://sumo.dlr.de/xsd/tripinfo_file.xsd">
    <tripinfo id="2" depart="2.00" departLane="-E4_0" departPos="5.10" departSpeed="0.00" departDelay="0.00" arrival="18.00" arrivalLane="E3_0" arrivalPos="70.00" arrivalSpeed="13.99" duration="16.00" routeLength="143.95" waitingTime="0.00" waitingCount="0" stopTime="0.00" timeLoss="4.33" rerouteNo="0" devices="tripinfo_2" vType="DEFAULT_VEHTYPE" speedFactor="1.01" vaporized=""/>
    <tripinfo id="7" depart="7.00" departLane="-E4_0" departPos="5.10" departSpeed="0.00" departDelay="0.00" arrival="23.00" arrivalLane="E3_0" arrivalPos="70.00" arrivalSpeed="13.36" duration="16.00" routeLength="143.95" waitingTime="0.00" waitingCount="0" stopTime="0.00" timeLoss="5.40" rerouteNo="0" devices="tripinfo_7" vType="DEFAULT_VEHTYPE" speedFactor="1.05" vaporized=""/>
    <tripinfo id="6" depart="7.00" departLane="-E2_0" departPos="5.10" departSpeed="0.00" departDelay="1.00" arrival="25.00" arrivalLane="-E5_0" arrivalPos="70.00" arrivalSpeed="11.30" duration="18.00" routeLength="143.97" waitingTime="0.00" waitingCount="0" stopTime="0.00" timeLoss="4.31" rerouteNo="0" devices="tripinfo_6" vType="DEFAULT_VEHTYPE" speedFactor="0.83" vaporized=""/>
    <tripinfo id="10" depart="10.00" departLane="E5_0" departPos="5.10" departSpeed="0.00" departDelay="0.00" arrival="26.00" arrivalLane="E3_0" arrivalPos="70.00" arrivalSpeed="12.98" duration="16.00" routeLength="155.70" waitingTime="0.00" waitingCount="0" stopTime="0.00" timeLoss="3.67" rerouteNo="0" devices="tripinfo_10" vType="DEFAULT_VEHTYPE" speedFactor="0.94" vaporized=""/>
    <tripinfo id="1" depart="1.00" departLane="-E3_0" departPos="5.10" departSpeed="0.00" departDelay="0.00" arrival="27.00" arrivalLane="-E5_0" arrivalPos="70.00" arrivalSpeed="12.49" duration="26.00" routeLength="155.73" waitingTime="4.00" waitingCount="1" stopTime="0.00" timeLoss="13.37" rerouteNo="0" devices="tripinfo_1" vType="DEFAULT_VEHTYPE" speedFactor="0.94" vaporized=""/>
    <tripinfo id="4" depart="4.00" departLane="-E3_0" departPos="5.10" departSpeed="0.00" departDelay="0.00" arrival="28.00" arrivalLane="-E5_0" arrivalPos="70.00" arrivalSpeed="14.53" duration="24.00" routeLength="155.73" waitingTime="4.00" waitingCount="1" stopTime="0.00" timeLoss="13.60" rerouteNo="0" devices="tripinfo_4" vType="DEFAULT_VEHTYPE" speedFactor="1.08" vaporized=""/>
    <tripinfo id="14" depart="15.00" departLane="E5_0" departPos="5.10" departSpeed="0.00" departDelay="1.00" arrival="30.00" arrivalLane="E3_0" arrivalPos="70.00" arrivalSpeed="14.34" duration="15.00" routeLength="155.70" waitingTime="0.00" waitingCount="0" stopTime="0.00" timeLoss="3.84" rerouteNo="0" devices="tripinfo_14" vType="DEFAULT_VEHTYPE" speedFactor="1.05" vaporized=""/>
    <tripinfo id="11" depart="11.00" departLane="-E3_0" departPos="5.10" departSpeed="0.00" departDelay="0.00" arrival="31.00" arrivalLane="-E5_0" arrivalPos="70.00" arrivalSpeed="11.11" duration="20.00" routeLength="155.73" waitingTime="0.00" waitingCount="0" stopTime="0.00" timeLoss="6.45" rerouteNo="0" devices="tripinfo_11" vType="DEFAULT_VEHTYPE" speedFactor="0.86" vaporized=""/>
    <tripinfo id="15" depart="18.00" departLane="E5_0" departPos="5.10" departSpeed="0.00" departDelay="3.00" arrival="33.00" arrivalLane="E3_0" arrivalPos="70.00" arrivalSpeed="14.58" duration="15.00" routeLength="155.70" waitingTime="0.00" waitingCount="0" stopTime="0.00" timeLoss="4.24" rerouteNo="0" devices="tripinfo_15" vType="DEFAULT_VEHTYPE" speedFactor="1.12" vaporized=""/>
    <tripinfo id="18" depart="21.00" departLane="E5_0" departPos="5.10" departSpeed="0.00" departDelay="3.00" arrival="36.00" arrivalLane="E3_0" arrivalPos="70.00" arrivalSpeed="12.65" duration="15.00" routeLength="155.70" waitingTime="0.00" waitingCount="0" stopTime="0.00" timeLoss="3.54" rerouteNo="0" devices="tripinfo_18" vType="DEFAULT_VEHTYPE" speedFactor="0.99" vaporized=""/>
    <tripinfo id="19" depart="24.00" departLane="E5_0" departPos="5.10" departSpeed="0.00" departDelay="5.00" arrival="39.00" arrivalLane="E3_0" arrivalPos="70.00" arrivalSpeed="12.08" duration="15.00" routeLength="155.70" waitingTime="0.00" waitingCount="0" stopTime="0.00" timeLoss="2.81" rerouteNo="0" devices="tripinfo_19" vType="DEFAULT_VEHTYPE" speedFactor="0.93" vaporized=""/>
    <tripinfo id="5" depart="5.00" departLane="-E2_0" departPos="5.10" departSpeed="0.00" departDelay="0.00" arrival="42.00" arrivalLane="E3_1" arrivalPos="70.00" arrivalSpeed="13.21" duration="37.00" routeLength="154.25" waitingTime="17.00" waitingCount="1" stopTime="0.00" timeLoss="25.46" rerouteNo="0" devices="tripinfo_5" vType="DEFAULT_VEHTYPE" speedFactor="1.03" vaporized=""/>
    <tripinfo id="0" depart="0.00" departLane="-E4_0" departPos="5.10" departSpeed="0.00" departDelay="0.00" arrival="44.00" arrivalLane="-E5_1" arrivalPos="70.00" arrivalSpeed="13.99" duration="44.00" routeLength="154.27" waitingTime="21.00" waitingCount="1" stopTime="0.00" timeLoss="32.65" rerouteNo="0" devices="tripinfo_0" vType="DEFAULT_VEHTYPE" speedFactor="1.06" vaporized=""/>
    <tripinfo id="8" depart="10.00" departLane="-E2_0" departPos="5.10" departSpeed="0.00" departDelay="2.00" arrival="45.00" arrivalLane="E3_1" arrivalPos="70.00" arrivalSpeed="11.41" duration="35.00" routeLength="154.25" waitingTime="14.00" waitingCount="1" stopTime="0.00" timeLoss="21.61" rerouteNo="0" devices="tripinfo_8" vType="DEFAULT_VEHTYPE" speedFactor="0.89" vaporized=""/>
    <tripinfo id="20" depart="20.00" departLane="-E4_0" departPos="5.10" departSpeed="0.00" departDelay="0.00" arrival="47.00" arrivalLane="-E5_1" arrivalPos="70.00" arrivalSpeed="11.77" duration="27.00" routeLength="154.27" waitingTime="3.00" waitingCount="1" stopTime="0.00" timeLoss="13.50" rerouteNo="0" devices="tripinfo_20" vType="DEFAULT_VEHTYPE" speedFactor="0.88" vaporized=""/>
    <tripinfo id="28" depart="28.00" departLane="-E2_0" departPos="5.10" departSpeed="0.00" departDelay="0.00" arrival="47.00" arrivalLane="E3_1" arrivalPos="70.00" arrivalSpeed="12.83" duration="19.00" routeLength="154.25" waitingTime="0.00" waitingCount="0" stopTime="0.00" timeLoss="6.68" rerouteNo="0" devices="tripinfo_28" vType="DEFAULT_VEHTYPE" speedFactor="0.97" vaporized=""/>
    <tripinfo id="12" depart="13.00" departLane="E5_0" departPos="5.10" departSpeed="0.00" departDelay="1.00" arrival="58.00" arrivalLane="E2_1" arrivalPos="70.00" arrivalSpeed="14.13" duration="45.00" routeLength="154.28" waitingTime="24.00" waitingCount="1" stopTime="0.00" timeLoss="34.14" rerouteNo="0" devices="tripinfo_12" vType="DEFAULT_VEHTYPE" speedFactor="1.09" vaporized=""/>
    <tripinfo id="26" depart="28.00" departLane="-E3_0" departPos="5.10" departSpeed="0.00" departDelay="2.00" arrival="58.00" arrivalLane="E4_1" arrivalPos="70.00" arrivalSpeed="14.01" duration="30.00" routeLength="154.26" waitingTime="10.00" waitingCount="1" stopTime="0.00" timeLoss="18.44" rerouteNo="0" devices="tripinfo_26" vType="DEFAULT_VEHTYPE" speedFactor="1.02" vaporized=""/>
    <tripinfo id="36" depart="36.00" departLane="E5_0" departPos="5.10" departSpeed="0.00" departDelay="0.00" arrival="61.00" arrivalLane="E2_1" arrivalPos="70.00" arrivalSpeed="12.58" duration="25.00" routeLength="154.28" waitingTime="3.00" waitingCount="1" stopTime="0.00" timeLoss="11.87" rerouteNo="0" devices="tripinfo_36" vType="DEFAULT_VEHTYPE" speedFactor="0.93" vaporized=""/>
    <tripinfo id="38" depart="38.00" departLane="E5_0" departPos="5.10" departSpeed="0.00" departDelay="0.00" arrival="63.00" arrivalLane="E2_1" arrivalPos="70.00" arrivalSpeed="15.02" duration="25.00" routeLength="154.28" waitingTime="1.00" waitingCount="1" stopTime="0.00" timeLoss="14.05" rerouteNo="0" devices="tripinfo_38" vType="DEFAULT_VEHTYPE" speedFactor="1.15" vaporized=""/>
    <tripinfo id="46" depart="46.00" departLane="E5_0" departPos="5.10" departSpeed="0.00" departDelay="0.00" arrival="64.00" arrivalLane="E2_1" arrivalPos="70.00" arrivalSpeed="15.05" duration="18.00" routeLength="154.28" waitingTime="0.00" waitingCount="0" stopTime="0.00" timeLoss="7.25" rerouteNo="0" devices="tripinfo_46" vType="DEFAULT_VEHTYPE" speedFactor="1.10" vaporized=""/>
    <tripinfo id="54" depart="54.00" departLane="-E3_0" departPos="5.10" departSpeed="0.00" departDelay="0.00" arrival="71.00" arrivalLane="E4_1" arrivalPos="70.00" arrivalSpeed="14.40" duration="17.00" routeLength="154.26" waitingTime="0.00" waitingCount="0" stopTime="0.00" timeLoss="4.68" rerouteNo="0" devices="tripinfo_54" vType="DEFAULT_VEHTYPE" speedFactor="1.04" vaporized=""/>
    <tripinfo id="55" depart="55.00" departLane="E5_0" departPos="5.10" departSpeed="0.00" departDelay="0.00" arrival="74.00" arrivalLane="E2_1" arrivalPos="70.00" arrivalSpeed="14.40" duration="19.00" routeLength="154.28" waitingTime="0.00" waitingCount="0" stopTime="0.00" timeLoss="6.94" rerouteNo="0" devices="tripinfo_55" vType="DEFAULT_VEHTYPE" speedFactor="1.04" vaporized=""/>
    <tripinfo id="30" depart="30.00" departLane="E5_0" departPos="5.10" departSpeed="0.00" departDelay="0.00" arrival="75.00" arrivalLane="E3_0" arrivalPos="70.00" arrivalSpeed="12.06" duration="45.00" routeLength="155.70" waitingTime="23.00" waitingCount="1" stopTime="0.00" timeLoss="32.11" rerouteNo="0" devices="tripinfo_30" vType="DEFAULT_VEHTYPE" speedFactor="0.89" vaporized=""/>
    <tripinfo id="25" depart="25.00" departLane="-E3_0" departPos="5.10" departSpeed="0.00" departDelay="0.00" arrival="77.00" arrivalLane="-E5_0" arrivalPos="70.00" arrivalSpeed="15.69" duration="52.00" routeLength="155.73" waitingTime="31.00" waitingCount="2" stopTime="0.00" timeLoss="42.29" rerouteNo="0" devices="tripinfo_25" vType="DEFAULT_VEHTYPE" speedFactor="1.16" vaporized=""/>
    <tripinfo id="32" depart="33.00" departLane="E5_0" departPos="5.10" departSpeed="0.00" departDelay="1.00" arrival="77.00" arrivalLane="E4_0" arrivalPos="70.00" arrivalSpeed="11.81" duration="44.00" routeLength="143.93" waitingTime="22.00" waitingCount="1" stopTime="0.00" timeLoss="30.94" rerouteNo="0" devices="tripinfo_32" vType="DEFAULT_VEHTYPE" speedFactor="0.87" vaporized=""/>
    <tripinfo id="34" depart="34.00" departLane="-E3_0" departPos="5.10" departSpeed="0.00" departDelay="0.00" arrival="79.00" arrivalLane="E2_0" arrivalPos="70.00" arrivalSpeed="12.39" duration="45.00" routeLength="143.93" waitingTime="22.00" waitingCount="2" stopTime="0.00" timeLoss="33.51" rerouteNo="0" devices="tripinfo_34" vType="DEFAULT_VEHTYPE" speedFactor="0.95" vaporized=""/>
    <tripinfo id="43" depart="43.00" departLane="E5_0" departPos="5.10" departSpeed="0.00" departDelay="0.00" arrival="79.00" arrivalLane="E3_0" arrivalPos="70.00" arrivalSpeed="13.78" duration="36.00" routeLength="155.70" waitingTime="13.00" waitingCount="1" stopTime="0.00" timeLoss="24.48" rerouteNo="0" devices="tripinfo_43" vType="DEFAULT_VEHTYPE" speedFactor="1.02" vaporized=""/>
    <tripinfo id="39" depart="39.00" departLane="-E3_0" departPos="5.10" departSpeed="0.00" departDelay="0.00" arrival="82.00" arrivalLane="-E5_0" arrivalPos="70.00" arrivalSpeed="13.49" duration="43.00" routeLength="155.73" waitingTime="18.00" waitingCount="1" stopTime="0.00" timeLoss="31.32" rerouteNo="0" devices="tripinfo_39" vType="DEFAULT_VEHTYPE" speedFactor="1.01" vaporized=""/>
    <tripinfo id="48" depart="48.00" departLane="E5_0" departPos="5.10" departSpeed="0.00" departDelay="0.00" arrival="82.00" arrivalLane="E3_0" arrivalPos="70.00" arrivalSpeed="12.05" duration="34.00" routeLength="155.70" waitingTime="10.00" waitingCount="1" stopTime="0.00" timeLoss="20.84" rerouteNo="0" devices="tripinfo_48" vType="DEFAULT_VEHTYPE" speedFactor="0.90" vaporized=""/>
    <tripinfo id="49" depart="51.00" departLane="E5_0" departPos="5.10" departSpeed="0.00" departDelay="2.00" arrival="84.00" arrivalLane="E4_0" arrivalPos="70.00" arrivalSpeed="13.75" duration="33.00" routeLength="143.93" waitingTime="8.00" waitingCount="1" stopTime="0.00" timeLoss="21.65" rerouteNo="0" devices="tripinfo_49" vType="DEFAULT_VEHTYPE" speedFactor="1.03" vaporized=""/>
    <tripinfo id="42" depart="42.00" departLane="-E3_0" departPos="5.10" departSpeed="0.00" departDelay="0.00" arrival="85.00" arrivalLane="-E5_0" arrivalPos="70.00" arrivalSpeed="12.52" duration="43.00" routeLength="155.73" waitingTime="15.00" waitingCount="1" stopTime="0.00" timeLoss="31.10" rerouteNo="0" devices="tripinfo_42" vType="DEFAULT_VEHTYPE" speedFactor="0.99" vaporized=""/>
    <tripinfo id="57" depart="57.00" departLane="E5_0" departPos="5.10" departSpeed="0.00" departDelay="0.00" arrival="86.00" arrivalLane="E4_0" arrivalPos="70.00" arrivalSpeed="13.36" duration="29.00" routeLength="143.93" waitingTime="5.00" waitingCount="1" stopTime="0.00" timeLoss="17.89" rerouteNo="0" devices="tripinfo_57" vType="DEFAULT_VEHTYPE" speedFactor="1.00" vaporized=""/>
    <tripinfo id="65" depart="65.00" departLane="-E3_0" departPos="5.10" departSpeed="0.00" departDelay="0.00" arrival="87.00" arrivalLane="-E5_0" arrivalPos="70.00" arrivalSpeed="13.68" duration="22.00" routeLength="155.73" waitingTime="0.00" waitingCount="0" stopTime="0.00" timeLoss="10.01" rerouteNo="0" devices="tripinfo_65" vType="DEFAULT_VEHTYPE" speedFactor="1.02" vaporized=""/>
    <tripinfo id="13" depart="13.00" departLane="-E2_0" departPos="5.10" departSpeed="0.00" departDelay="0.00" arrival="90.00" arrivalLane="-E5_0" arrivalPos="70.00" arrivalSpeed="14.24" duration="77.00" routeLength="143.97" waitingTime="56.00" waitingCount="1" stopTime="0.00" timeLoss="65.79" rerouteNo="0" devices="tripinfo_13" vType="DEFAULT_VEHTYPE" speedFactor="1.03" vaporized=""/>
    <tripinfo id="24" depart="24.00" departLane="-E4_0" departPos="5.10" departSpeed="0.00" departDelay="0.00" arrival="91.00" arrivalLane="E2_0" arrivalPos="70.00" arrivalSpeed="12.55" duration="67.00" routeLength="155.72" waitingTime="45.00" waitingCount="1" stopTime="0.00" timeLoss="54.09" rerouteNo="0" devices="tripinfo_24" vType="DEFAULT_VEHTYPE" speedFactor="0.94" vaporized=""/>
    <tripinfo id="27" depart="27.00" departLane="-E4_0" departPos="5.10" departSpeed="0.00" departDelay="0.00" arrival="92.00" arrivalLane="E3_0" arrivalPos="70.00" arrivalSpeed="13.92" duration="65.00" routeLength="143.95" waitingTime="44.00" waitingCount="1" stopTime="0.00" timeLoss="53.22" rerouteNo="0" devices="tripinfo_27" vType="DEFAULT_VEHTYPE" speedFactor="1.01" vaporized=""/>
    <tripinfo id="22" depart="22.00" departLane="-E2_0" departPos="5.10" departSpeed="0.00" departDelay="0.00" arrival="93.00" arrivalLane="-E5_0" arrivalPos="70.00" arrivalSpeed="12.20" duration="71.00" routeLength="143.97" waitingTime="48.00" waitingCount="1" stopTime="0.00" timeLoss="58.62" rerouteNo="0" devices="tripinfo_22" vType="DEFAULT_VEHTYPE" speedFactor="0.94" vaporized=""/>
    <tripinfo id="31" depart="31.00" departLane="-E4_0" departPos="5.10" departSpeed="0.00" departDelay="0.00" arrival="96.00" arrivalLane="E3_0" arrivalPos="70.00" arrivalSpeed="11.08" duration="65.00" routeLength="143.95" waitingTime="41.00" waitingCount="1" stopTime="0.00" timeLoss="50.99" rerouteNo="0" devices="tripinfo_31" vType="DEFAULT_VEHTYPE" speedFactor="0.83" vaporized=""/>
    <tripinfo id="33" depart="33.00" departLane="-E2_0" departPos="5.10" departSpeed="0.00" departDelay="0.00" arrival="96.00" arrivalLane="-E5_0" arrivalPos="70.00" arrivalSpeed="12.66" duration="63.00" routeLength="143.97" waitingTime="40.00" waitingCount="1" stopTime="0.00" timeLoss="50.44" rerouteNo="0" devices="tripinfo_33" vType="DEFAULT_VEHTYPE" speedFactor="0.92" vaporized=""/>
    <tripinfo id="35" depart="36.00" departLane="-E2_0" departPos="5.10" departSpeed="0.00" departDelay="1.00" arrival="97.00" arrivalLane="E4_0" arrivalPos="70.00" arrivalSpeed="14.86" duration="61.00" routeLength="155.72" waitingTime="38.00" waitingCount="1" stopTime="0.00" timeLoss="50.45" rerouteNo="0" devices="tripinfo_35" vType="DEFAULT_VEHTYPE" speedFactor="1.13" vaporized=""/>
    <tripinfo id="37" depart="37.00" departLane="-E4_0" departPos="5.10" departSpeed="0.00" departDelay="0.00" arrival="97.00" arrivalLane="E2_0" arrivalPos="70.00" arrivalSpeed="15.22" duration="60.00" routeLength="155.72" waitingTime="37.00" waitingCount="1" stopTime="0.00" timeLoss="50.05" rerouteNo="0" devices="tripinfo_37" vType="DEFAULT_VEHTYPE" speedFactor="1.18" vaporized=""/>
    <tripinfo id="40" depart="40.00" departLane="-E4_0" departPos="5.10" departSpeed="0.00" departDelay="0.00" arrival="99.00" arrivalLane="E2_0" arrivalPos="70.00" arrivalSpeed="15.72" duration="59.00" routeLength="155.72" waitingTime="36.00" waitingCount="1" stopTime="0.00" timeLoss="48.60" rerouteNo="0" devices="tripinfo_40" vType="DEFAULT_VEHTYPE" speedFactor="1.17" vaporized=""/>
    <tripinfo id="44" depart="44.00" departLane="-E2_0" departPos="5.10" departSpeed="0.00" departDelay="0.00" arrival="101.00" arrivalLane="-E5_0" arrivalPos="70.00" arrivalSpeed="12.67" duration="57.00" routeLength="143.97" waitingTime="34.00" waitingCount="1" stopTime="0.00" timeLoss="45.12" rerouteNo="0" devices="tripinfo_44" vType="DEFAULT_VEHTYPE" speedFactor="0.97" vaporized=""/>
    <tripinfo id="51" depart="51.00" departLane="-E4_0" departPos="5.10" departSpeed="0.00" departDelay="0.00" arrival="101.00" arrivalLane="E3_0" arrivalPos="70.00" arrivalSpeed="14.11" duration="50.00" routeLength="143.95" waitingTime="28.00" waitingCount="1" stopTime="0.00" timeLoss="39.87" rerouteNo="0" devices="tripinfo_51" vType="DEFAULT_VEHTYPE" speedFactor="1.09" vaporized=""/>
    <tripinfo id="73" depart="73.00" departLane="-E4_0" departPos="5.10" departSpeed="0.00" departDelay="0.00" arrival="103.00" arrivalLane="E3_0" arrivalPos="70.00" arrivalSpeed="14.63" duration="30.00" routeLength="143.95" waitingTime="6.00" waitingCount="1" stopTime="0.00" timeLoss="19.90" rerouteNo="0" devices="tripinfo_73" vType="DEFAULT_VEHTYPE" speedFactor="1.14" vaporized=""/>
    <tripinfo id="63" depart="63.00" departLane="-E2_0" departPos="5.10" departSpeed="0.00" departDelay="0.00" arrival="104.00" arrivalLane="E4_0" arrivalPos="70.00" arrivalSpeed="11.58" duration="41.00" routeLength="155.72" waitingTime="15.00" waitingCount="1" stopTime="0.00" timeLoss="27.48" rerouteNo="0" devices="tripinfo_63" vType="DEFAULT_VEHTYPE" speedFactor="0.85" vaporized=""/>
    <tripinfo id="72" depart="73.00" departLane="-E3_0" departPos="5.10" departSpeed="0.00" departDelay="1.00" arrival="106.00" arrivalLane="-E5_0" arrivalPos="70.00" arrivalSpeed="11.67" duration="33.00" routeLength="155.73" waitingTime="11.00" waitingCount="1" stopTime="0.00" timeLoss="20.47" rerouteNo="0" devices="tripinfo_72" vType="DEFAULT_VEHTYPE" speedFactor="0.90" vaporized=""/>
    <tripinfo id="60" depart="60.00" departLane="E5_0" departPos="5.10" departSpeed="0.00" departDelay="0.00" arrival="108.00" arrivalLane="E3_0" arrivalPos="70.00" arrivalSpeed="11.16" duration="48.00" routeLength="155.70" waitingTime="18.00" waitingCount="2" stopTime="0.00" timeLoss="35.09" rerouteNo="0" devices="tripinfo_60" vType="DEFAULT_VEHTYPE" speedFactor="0.88" vaporized=""/>
    <tripinfo id="89" depart="89.00" departLane="-E3_0" departPos="5.10" departSpeed="0.00" departDelay="0.00" arrival="108.00" arrivalLane="E2_0" arrivalPos="70.00" arrivalSpeed="11.47" duration="19.00" routeLength="143.93" waitingTime="0.00" waitingCount="0" stopTime="0.00" timeLoss="6.58" rerouteNo="0" devices="tripinfo_89" vType="DEFAULT_VEHTYPE" speedFactor="0.91" vaporized=""/>
    <tripinfo id="92" depart="92.00" departLane="-E3_0" departPos="5.10" departSpeed="0.00" departDelay="0.00" arrival="110.00" arrivalLane="E2_0" arrivalPos="70.00" arrivalSpeed="14.17" duration="18.00" routeLength="143.93" waitingTime="0.00" waitingCount="0" stopTime="0.00" timeLoss="7.23" rerouteNo="0" devices="tripinfo_92" vType="DEFAULT_VEHTYPE" speedFactor="1.02" vaporized=""/>
    <tripinfo id="61" depart="63.00" departLane="E5_0" departPos="5.10" departSpeed="0.00" departDelay="2.00" arrival="111.00" arrivalLane="E3_0" arrivalPos="70.00" arrivalSpeed="10.57" duration="48.00" routeLength="155.70" waitingTime="15.00" waitingCount="2" stopTime="0.00" timeLoss="33.94" rerouteNo="0" devices="tripinfo_61" vType="DEFAULT_VEHTYPE" speedFactor="0.85" vaporized=""/>
    <tripinfo id="64" depart="66.00" departLane="E5_0" departPos="5.10" departSpeed="0.00" departDelay="2.00" arrival="111.00" arrivalLane="E4_0" arrivalPos="70.00" arrivalSpeed="16.06" duration="45.00" routeLength="143.93" waitingTime="14.00" waitingCount="2" stopTime="0.00" timeLoss="34.69" rerouteNo="0" devices="tripinfo_64" vType="DEFAULT_VEHTYPE" speedFactor="1.17" vaporized=""/>
    <tripinfo id="95" depart="95.00" departLane="-E3_0" departPos="5.10" departSpeed="0.00" departDelay="0.00" arrival="113.00" arrivalLane="E2_0" arrivalPos="70.00" arrivalSpeed="13.44" duration="18.00" routeLength="143.93" waitingTime="0.00" waitingCount="0" stopTime="0.00" timeLoss="6.64" rerouteNo="0" devices="tripinfo_95" vType="DEFAULT_VEHTYPE" speedFactor="1.02" vaporized=""/>
    <tripinfo id="66" depart="76.00" departLane="E5_0" departPos="5.10" departSpeed="0.00" departDelay="10.00" arrival="114.00" arrivalLane="E4_0" arrivalPos="70.00" arrivalSpeed="14.22" duration="38.00" routeLength="143.93" waitingTime="12.00" waitingCount="1" stopTime="0.00" timeLoss="26.89" rerouteNo="0" devices="tripinfo_66" vType="DEFAULT_VEHTYPE" speedFactor="1.10" vaporized=""/>
    <tripinfo id="75" depart="79.00" departLane="E5_0" departPos="5.10" departSpeed="0.00" departDelay="4.00" arrival="116.00" arrivalLane="E3_0" arrivalPos="70.00" arrivalSpeed="14.14" duration="37.00" routeLength="155.70" waitingTime="12.00" waitingCount="1" stopTime="0.00" timeLoss="25.62" rerouteNo="0" devices="tripinfo_75" vType="DEFAULT_VEHTYPE" speedFactor="1.02" vaporized=""/>
    <tripinfo id="102" depart="102.00" departLane="-E3_0" departPos="5.10" departSpeed="0.00" departDelay="0.00" arrival="117.00" arrivalLane="-E5_0" arrivalPos="70.00" arrivalSpeed="13.74" duration="15.00" routeLength="155.73" waitingTime="0.00" waitingCount="0" stopTime="0.00" timeLoss="3.36" rerouteNo="0" devices="tripinfo_102" vType="DEFAULT_VEHTYPE" speedFactor="1.03" vaporized=""/>
    <tripinfo id="85" depart="85.00" departLane="E5_0" departPos="5.10" departSpeed="0.00" departDelay="0.00" arrival="119.00" arrivalLane="E3_0" arrivalPos="70.00" arrivalSpeed="12.14" duration="34.00" routeLength="155.70" waitingTime="9.00" waitingCount="1" stopTime="0.00" timeLoss="20.36" rerouteNo="0" devices="tripinfo_85" vType="DEFAULT_VEHTYPE" speedFactor="0.88" vaporized=""/>
    <tripinfo id="45" depart="47.00" departLane="-E2_0" departPos="5.10" departSpeed="0.00" departDelay="2.00" arrival="121.00" arrivalLane="E3_1" arrivalPos="70.00" arrivalSpeed="15.39" duration="74.00" routeLength="154.25" waitingTime="56.00" waitingCount="1" stopTime="0.00" timeLoss="64.16" rerouteNo="0" devices="tripinfo_45" vType="DEFAULT_VEHTYPE" speedFactor="1.18" vaporized=""/>
    <tripinfo id="56" depart="56.00" departLane="-E4_0" departPos="5.10" departSpeed="0.00" departDelay="0.00" arrival="122.00" arrivalLane="-E5_1" arrivalPos="70.00" arrivalSpeed="14.85" duration="66.00" routeLength="154.27" waitingTime="46.00" waitingCount="1" stopTime="0.00" timeLoss="54.60" rerouteNo="0" devices="tripinfo_56" vType="DEFAULT_VEHTYPE" speedFactor="1.09" vaporized=""/>
    <tripinfo id="50" depart="50.00" departLane="-E2_0" departPos="5.10" departSpeed="0.00" departDelay="0.00" arrival="124.00" arrivalLane="E3_1" arrivalPos="70.00" arrivalSpeed="12.54" duration="74.00" routeLength="154.25" waitingTime="53.00" waitingCount="1" stopTime="0.00" timeLoss="61.47" rerouteNo="0" devices="tripinfo_50" vType="DEFAULT_VEHTYPE" speedFactor="0.96" vaporized=""/>
    <tripinfo id="59" depart="59.00" departLane="-E4_0" departPos="5.10" departSpeed="0.00" departDelay="0.00" arrival="125.00" arrivalLane="-E5_1" arrivalPos="70.00" arrivalSpeed="12.01" duration="66.00" routeLength="154.27" waitingTime="44.00" waitingCount="1" stopTime="0.00" timeLoss="52.64" rerouteNo="0" devices="tripinfo_59" vType="DEFAULT_VEHTYPE" speedFactor="0.90" vaporized=""/>
    <tripinfo id="80" depart="93.00" departLane="-E2_0" departPos="5.10" departSpeed="0.00" departDelay="13.00" arrival="126.00" arrivalLane="E3_1" arrivalPos="70.00" arrivalSpeed="14.67" duration="33.00" routeLength="154.25" waitingTime="12.00" waitingCount="1" stopTime="0.00" timeLoss="21.83" rerouteNo="0" devices="tripinfo_80" vType="DEFAULT_VEHTYPE" speedFactor="1.12" vaporized=""/>
    <tripinfo id="98" depart="98.00" departLane="-E4_0" departPos="5.10" departSpeed="0.00" departDelay="0.00" arrival="127.00" arrivalLane="-E5_1" arrivalPos="70.00" arrivalSpeed="14.07" duration="29.00" routeLength="154.27" waitingTime="7.00" waitingCount="1" stopTime="0.00" timeLoss="17.34" rerouteNo="0" devices="tripinfo_98" vType="DEFAULT_VEHTYPE" speedFactor="1.06" vaporized=""/>
    <tripinfo id="83" depart="98.00" departLane="-E2_0" departPos="5.10" departSpeed="0.00" departDelay="15.00" arrival="129.00" arrivalLane="E3_1" arrivalPos="70.00" arrivalSpeed="12.42" duration="31.00" routeLength="154.25" waitingTime="7.00" waitingCount="1" stopTime="0.00" timeLoss="18.03" rerouteNo="0" devices="tripinfo_83" vType="DEFAULT_VEHTYPE" speedFactor="0.99" vaporized=""/>
    <tripinfo id="112" depart="112.00" departLane="-E2_0" departPos="5.10" departSpeed="0.00" departDelay="0.00" arrival="131.00" arrivalLane="E3_1" arrivalPos="70.00" arrivalSpeed="12.43" duration="19.00" routeLength="154.25" waitingTime="0.00" waitingCount="0" stopTime="0.00" timeLoss="5.99" rerouteNo="0" devices="tripinfo_112" vType="DEFAULT_VEHTYPE" speedFactor="0.98" vaporized=""/>
    <tripinfo id="90" depart="90.00" departLane="-E4_0" departPos="5.10" departSpeed="0.00" departDelay="0.00" arrival="137.00" arrivalLane="E3_0" arrivalPos="70.00" arrivalSpeed="14.33" duration="47.00" routeLength="143.95" waitingTime="29.00" waitingCount="1" stopTime="0.00" timeLoss="36.25" rerouteNo="0" devices="tripinfo_90" vType="DEFAULT_VEHTYPE" speedFactor="1.04" vaporized=""/>
    <tripinfo id="68" depart="68.00" departLane="-E2_0" departPos="5.10" departSpeed="0.00" departDelay="0.00" arrival="138.00" arrivalLane="E4_0" arrivalPos="70.00" arrivalSpeed="13.19" duration="70.00" routeLength="155.72" waitingTime="44.00" waitingCount="2" stopTime="0.00" timeLoss="58.72" rerouteNo="0" devices="tripinfo_68" vType="DEFAULT_VEHTYPE" speedFactor="1.00" vaporized=""/>
    <tripinfo id="108" depart="108.00" departLane="-E4_0" departPos="5.10" departSpeed="0.00" departDelay="0.00" arrival="140.00" arrivalLane="E3_0" arrivalPos="70.00" arrivalSpeed="13.25" duration="32.00" routeLength="143.95" waitingTime="11.00" waitingCount="1" stopTime="0.00" timeLoss="20.29" rerouteNo="0" devices="tripinfo_108" vType="DEFAULT_VEHTYPE" speedFactor="1.02" vaporized=""/>
    <tripinfo id="77" depart="77.00" departLane="-E2_0" departPos="5.10" departSpeed="0.00" departDelay="0.00" arrival="141.00" arrivalLane="-E5_0" arrivalPos="70.00" arrivalSpeed="13.31" duration="64.00" routeLength="143.97" waitingTime="34.00" waitingCount="2" stopTime="0.00" timeLoss="51.86" rerouteNo="0" devices="tripinfo_77" vType="DEFAULT_VEHTYPE" speedFactor="0.97" vaporized=""/>
    <tripinfo id="111" depart="111.00" departLane="-E4_0" departPos="5.10" departSpeed="0.00" departDelay="0.00" arrival="142.00" arrivalLane="E3_0" arrivalPos="70.00" arrivalSpeed="15.41" duration="31.00" routeLength="143.95" waitingTime="8.00" waitingCount="1" stopTime="0.00" timeLoss="20.95" rerouteNo="0" devices="tripinfo_111" vType="DEFAULT_VEHTYPE" speedFactor="1.15" vaporized=""/>
    <tripinfo id="79" depart="80.00" departLane="-E2_0" departPos="5.10" departSpeed="0.00" departDelay="1.00" arrival="143.00" arrivalLane="-E5_0" arrivalPos="70.00" arrivalSpeed="14.65" duration="63.00" routeLength="143.97" waitingTime="32.00" waitingCount="2" stopTime="0.00" timeLoss="51.85" rerouteNo="0" devices="tripinfo_79" vType="DEFAULT_VEHTYPE" speedFactor="1.08" vaporized=""/>
    <tripinfo id="81" depart="95.00" departLane="-E2_0" departPos="5.10" departSpeed="0.00" departDelay="14.00" arrival="145.00" arrivalLane="E4_0" arrivalPos="70.00" arrivalSpeed="13.03" duration="50.00" routeLength="155.72" waitingTime="27.00" waitingCount="1" stopTime="0.00" timeLoss="38.61" rerouteNo="0" devices="tripinfo_81" vType="DEFAULT_VEHTYPE" speedFactor="1.02" vaporized=""/>
    <tripinfo id="116" depart="116.00" departLane="-E4_0" departPos="5.10" departSpeed="0.00" departDelay="0.00" arrival="145.00" arrivalLane="E3_0" arrivalPos="70.00" arrivalSpeed="12.90" duration="29.00" routeLength="143.95" waitingTime="7.00" waitingCount="1" stopTime="0.00" timeLoss="17.48" rerouteNo="0" devices="tripinfo_116" vType="DEFAULT_VEHTYPE" speedFactor="1.01" vaporized=""/>
    <tripinfo id="119" depart="119.00" departLane="-E4_0" departPos="5.10" departSpeed="0.00" departDelay="0.00" arrival="147.00" arrivalLane="E3_0" arrivalPos="70.00" arrivalSpeed="14.10" duration="28.00" routeLength="143.95" waitingTime="5.00" waitingCount="1" stopTime="0.00" timeLoss="17.31" rerouteNo="0" devices="tripinfo_119" vType="DEFAULT_VEHTYPE" speedFactor="1.02" vaporized=""/>