<?xml version="1.0" encoding="UTF-8"?>

<!-- generated on 2023-06-10 16:34:24 by Eclipse SUMO sumo Version 1.17.0
<configuration xmlns:xsi="http://www.w3.org/2001/XMLSchema-instance" xsi:noNamespaceSchemaLocation="http://sumo.dlr.de/xsd/sumoConfiguration.xsd">

    <input>
        <net-file value="/Users/serenazhang/Documents/traffic/traffic_rl/maps/intersection_2.net.xml"/>
        <route-files value="/Users/serenazhang/Documents/traffic/traffic_rl/maps/intersection_2.rou.xml"/>
    </input>

    <output>
        <tripinfo-output value="maps/tripinfo.xml"/>
    </output>

    <time>
        <begin value="0"/>
        <end value="200"/>
    </time>

    <report>
        <verbose value="true"/>
        <no-step-log value="true"/>
    </report>

    <traci_server>
        <remote-port value="49593"/>
    </traci_server>

</configuration>
-->

<tripinfos xmlns:xsi="http://www.w3.org/2001/XMLSchema-instance" xsi:noNamespaceSchemaLocation="http://sumo.dlr.de/xsd/tripinfo_file.xsd">
</tripinfos>
